<?xml version="1.0"?>
<VTKFile type="PolyData" version="0.1" byte_order="LittleEndian" compressor="vtkZLibDataCompressor">
	<PolyData>
		<Piece NumberOfPoints="6651" NumberOfVerts="0" NumberOfLines="0" NumberOfStrips="0" NumberOfPolys="13302">
		<PointData Normals="Normals">
		<DataArray type="Float32" Name="Normals" NumberOfComponents="3" format="ascii">
			-0.171492  0.161890  0.971793
			 0.141198  0.094803  0.985432
			 0.055358  0.031898  0.997957
			 0.020589  0.224339  0.974294
			-0.106503 -0.018169  0.994146
			-0.490650  0.082860  0.867408
			-0.460867  0.330448  0.823654
			-0.619669  0.267511  0.737868
			 0.079933  0.025754  0.996467
			 0.132709 -0.034752  0.990546
			 0.140186  0.015378  0.990006
			 0.161114  0.242807  0.956602
			 0.136246  0.095477  0.986063
			-0.074161  0.321287  0.944074
			 0.222765  0.278636  0.934204
			-0.518766 -0.090014  0.850164
			-0.200034 -0.156086  0.967276
			-0.679991  0.100144  0.726349
			-0.599498  0.359240  0.715226
			-0.701985  0.357026  0.616239
			-0.681602  0.257580  0.684888
			 0.027697 -0.035195  0.998997
			 0.083904  0.076416  0.993539
			 0.163681  0.365773  0.916198
			 0.040958  0.372361  0.927184
			 0.036317  0.193155  0.980496
			 0.004183  0.096420  0.995332
			 0.089761  0.081839  0.992595
			-0.408445  0.374858  0.832259
			 0.220392  0.356177  0.908056
			-0.485867 -0.169989  0.857343
			-0.591071 -0.006704  0.806592
			-0.257046 -0.114018  0.959650
			-0.748149  0.403288  0.526908
			-0.705235  0.444954  0.551960
			-0.696539  0.379530  0.608926
			-0.525099  0.124360  0.841906
			-0.509352  0.353530  0.784587
			-0.647827  0.331509  0.685874
			-0.026249  0.047051  0.998548
			-0.064802 -0.041125  0.997050
			 0.036026  0.116355  0.992554
			-0.013322  0.148505  0.988822
			 0.180086  0.450618  0.874364
			-0.006393  0.461678  0.887025
			-0.139057  0.322377  0.936342
			-0.059110  0.276261  0.959263
			-0.105336  0.162387  0.981089
			-0.149720  0.135931  0.979340
			-0.653524  0.501260  0.567138
			-0.101652  0.391512  0.914541
			-0.030303  0.583056  0.811866
			-0.382258  0.001358  0.924055
			-0.234050  0.052930  0.970783
			-0.148355  0.015987  0.988805
			-0.805965  0.393616  0.442140
			-0.703295  0.413502  0.578266
			-0.685169  0.428918  0.588704
			-0.557219  0.421198  0.715611
			-0.609666  0.395875  0.686724
			-0.167653  0.288944  0.942552
			-0.261048  0.202139  0.943925
			-0.323666  0.479151  0.815877
			-0.078974  0.376335  0.923112
			-0.113552  0.131038  0.984853
			-0.024498  0.150051  0.988375
			-0.122271  0.237291  0.963713
			-0.168920  0.231904  0.957960
			-0.022370  0.445124  0.895190
			 0.187051  0.479444  0.857406
			-0.234714  0.211976  0.948670
			-0.184645  0.163642  0.969086
			-0.159644  0.239757  0.957617
			-0.288941  0.343285  0.893682
			-0.138373  0.229264  0.963479
			-0.203620  0.185325  0.961350
			-0.281443  0.193072  0.939954
			-0.266867  0.216138  0.939184
			-0.179020  0.176671  0.967853
			-0.252572  0.564638  0.785742
			-0.612325  0.480355  0.627947
			-0.166097  0.558026  0.813030
			 0.038832  0.579309  0.814183
			-0.062845  0.254677  0.964982
			-0.189914  0.224335  0.955828
			-0.085541  0.183833  0.979228
			-0.148236  0.098059  0.984078
			-0.715577  0.367492  0.594053
			-0.609796  0.292909  0.736447
			-0.580298  0.234113  0.780029
			-0.451383  0.187830  0.872338
			-0.314816  0.446985  0.837314
			-0.317905  0.388664  0.864799
			 0.044512  0.264784  0.963280
			 0.315222  0.228709  0.921047
			 0.263498  0.290314  0.919938
			-0.014327  0.369368  0.929173
			 0.116054  0.486422  0.865982
			-0.104858  0.515414  0.850502
			 0.323590  0.371549  0.870196
			-0.181000  0.180581  0.966762
			-0.194412  0.283048  0.939195
			-0.217439  0.313296  0.924427
			-0.221777  0.237069  0.945840
			-0.177585  0.407343  0.895843
			-0.007696  0.424989  0.905166
			 0.063802  0.383864  0.921183
			 0.021187  0.473070  0.880770
			 0.105022  0.419376  0.901717
			-0.277119  0.142952  0.950142
			-0.350342  0.241377  0.904985
			-0.278317  0.168500  0.945594
			-0.203251  0.223685  0.953233
			-0.293878  0.343855  0.891852
			-0.251269  0.225844  0.941201
			-0.271804  0.216789  0.937617
			-0.279123  0.189739  0.941323
			-0.253750  0.218618  0.942240
			-0.193060  0.180579  0.964427
			-0.210656  0.198595  0.957175
			-0.650057  0.311197  0.693241
			-0.589239  0.385156  0.710248
			-0.325532  0.489007  0.809260
			-0.128224  0.522016  0.843242
			 0.076720  0.488149  0.869382
			 0.151176  0.350455  0.924298
			 0.024085  0.162585  0.986401
			-0.217211  0.106991  0.970244
			-0.477368  0.068229  0.876051
			-0.459065  0.242015  0.854803
			-0.361548  0.077726  0.929108
			-0.179746  0.181544  0.966816
			-0.319795 -0.006660  0.947464
			-0.102387  0.357484  0.928290
			 0.208078  0.322074  0.923565
			 0.525689  0.229357  0.819174
			 0.626544  0.165766  0.761553
			 0.513978  0.158628  0.843009
			 0.516536  0.255144  0.817369
			 0.039842  0.447666  0.893313
			 0.381850  0.337244  0.860498
			 0.067216  0.388852  0.918845
			-0.284143  0.193710  0.939010
			-0.350008  0.329856  0.876749
			-0.236986  0.375491  0.896015
			-0.277145  0.415700  0.866247
			-0.266748  0.278931  0.922520
			-0.256325  0.322008  0.911377
			-0.017393  0.276736  0.960789
			-0.242150  0.240238  0.940026
			-0.009123  0.380770  0.924625
			-0.139730  0.376293  0.915903
			-0.379219  0.149867  0.913090
			-0.415128  0.087993  0.905498
			-0.403722  0.223255  0.887224
			-0.378406  0.143377  0.914468
			-0.289673  0.155906  0.944342
			-0.422388  0.110550  0.899648
			-0.217837  0.110693  0.969688
			-0.272807  0.091733  0.957685
			-0.286930  0.175393  0.941758
			-0.183356  0.354329  0.916969
			-0.259534  0.335565  0.905560
			-0.377625  0.389281  0.840155
			 0.231790  0.438092  0.868533
			 0.036876  0.476622  0.878335
			 0.311709  0.241433  0.918993
			 0.229960  0.070133  0.970670
			 0.033121  0.062386  0.997502
			-0.177271  0.074165  0.981364
			-0.358433  0.155847  0.920455
			-0.315371  0.196379  0.928427
			-0.252668  0.029615  0.967100
			-0.249770  0.150198  0.956585
			-0.098610  0.027705  0.994740
			 0.111275  0.264648  0.957904
			 0.050725  0.159949  0.985821
			 0.370138  0.322248  0.871294
			 0.671579  0.218641  0.707940
			 0.723236  0.170524  0.669217
			 0.705718  0.201187  0.679328
			 0.667617  0.137673  0.731665
			 0.636798  0.188544  0.747623
			 0.592290  0.298724  0.748302
			-0.069943  0.467380  0.881285
			 0.199225  0.408471  0.890764
			 0.480691  0.264475  0.836056
			 0.635803  0.306026  0.708592
			 0.307061  0.220767  0.925730
			-0.383628  0.473691  0.792746
			-0.489229  0.385573  0.782297
			-0.250532  0.492703  0.833353
			-0.281742  0.440981  0.852149
			-0.305575  0.401402  0.863423
			-0.066221  0.290241  0.954660
			-0.167601  0.193004  0.966778
			-0.269608  0.177792  0.946415
			-0.048062  0.221577  0.973958
			-0.415012  0.214225  0.884236
			-0.213104  0.272756  0.938185
			-0.471711  0.147366  0.869352
			-0.517549  0.094531  0.850416
			-0.592027  0.032726  0.805253
			-0.527224  0.049140  0.848304
			-0.493441  0.184549  0.849975
			-0.448028  0.017255  0.893853
			-0.304031  0.074571  0.949739
			-0.576300  0.000236  0.817238
			-0.646512 -0.017921  0.762694
			-0.366273  0.015934  0.930371
			-0.457081  0.015374  0.889292
			-0.468202  0.183491  0.864360
			-0.331162  0.320924  0.887322
			-0.259200  0.470067  0.843714
			-0.288243  0.495794  0.819210
			 0.345464  0.222554  0.911660
			 0.157658  0.241398  0.957534
			 0.369143  0.094309  0.924575
			 0.098159  0.087756  0.991294
			 0.279293  0.020191  0.959994
			 0.363395 -0.015978  0.931498
			-0.183803  0.181192  0.966119
			-0.425063  0.243317  0.871848
			-0.092322  0.211804  0.972942
			-0.111786  0.056164  0.992144
			-0.183592  0.262639  0.947267
			-0.263488  0.266965  0.926986
			 0.198501  0.085622  0.976354
			 0.311987  0.104428  0.944330
			 0.550495  0.309727  0.775258
			 0.728153  0.281356  0.625006
			 0.749128  0.217903  0.625560
			 0.681508  0.207614  0.701743
			 0.704079  0.156271  0.692714
			 0.623897  0.226039  0.748104
			 0.659381  0.167556  0.732899
			 0.601300  0.193619  0.775210
			 0.663256  0.215888  0.716578
			-0.038389  0.435919  0.899167
			 0.166628  0.444589  0.880100
			 0.461020  0.367923  0.807523
			 0.647941  0.209720  0.732250
			 0.544571  0.106499  0.831926
			 0.710804  0.125798  0.692050
			-0.436190  0.526473  0.729770
			-0.273848  0.549078  0.789633
			-0.318754  0.476476  0.819370
			-0.390905  0.453134  0.801163
			-0.534091  0.473991  0.700057
			-0.213519  0.465988  0.858641
			-0.299151  0.452663  0.840003
			-0.150999  0.545584  0.824340
			-0.237262  0.287986  0.927777
			-0.169490  0.270343  0.947728
			-0.322890  0.223417  0.919689
			-0.258090  0.249620  0.933316
			-0.197261  0.217326  0.955959
			-0.065772  0.225169  0.972097
			-0.094713  0.241048  0.965881
			-0.428826  0.199296  0.881130
			-0.600571  0.113970  0.791407
			-0.731134  0.003356  0.682226
			-0.652649 -0.018073  0.757445
			-0.559262  0.145609  0.816103
			-0.663506 -0.122537  0.738068
			-0.576698 -0.122999  0.807645
			-0.709981 -0.077635  0.699928
			-0.774069 -0.105315  0.624280
			-0.746258 -0.057429  0.663175
			-0.622085 -0.103530  0.776075
			-0.561199  0.049562  0.826196
			-0.641412  0.163062  0.749668
			-0.491795  0.358208  0.793615
			-0.293365  0.512585  0.806966
			-0.312350  0.453066  0.834966
			-0.431935  0.538416  0.723561
			-0.338626  0.569660  0.748879
			 0.277062  0.210428  0.937527
			 0.397195 -0.013033  0.917642
			 0.118432  0.202290  0.972138
			-0.121275  0.331029  0.935795
			 0.184227  0.171060  0.967884
			 0.300910  0.111672  0.947092
			-0.398191  0.398372  0.826283
			-0.378010  0.445276  0.811688
			-0.520635  0.406219  0.750950
			-0.145324  0.280362  0.948830
			 0.431026  0.231535  0.872128
			 0.231918  0.256646  0.938268
			-0.144203  0.268883  0.952317
			 0.455678  0.015135  0.890016
			 0.499797  0.084669  0.861995
			 0.615645  0.021666  0.787726
			 0.692473  0.285840  0.662403
			 0.729737  0.276661  0.625254
			 0.620297  0.319795  0.716214
			 0.742898  0.167418  0.648131
			 0.749892  0.123905  0.649854
			 0.665602  0.169304  0.726850
			 0.614723  0.196999  0.763745
			 0.664174  0.159242  0.730421
			 0.796909  0.063017  0.600804
			 0.833714  0.108512  0.541430
			 0.574272  0.256601  0.777411
			 0.661525  0.117830  0.740608
			 0.692192  0.131682  0.709598
			 0.238976  0.407131  0.881552
			 0.516825  0.345377  0.783331
			 0.690147  0.093329  0.717626
			-0.456418  0.582379  0.672694
			-0.368183  0.482877  0.794526
			-0.313964  0.544723  0.777627
			-0.393274  0.591351  0.704016
			-0.132106  0.531861  0.836464
			-0.226100  0.511483  0.829014
			-0.126734  0.425193  0.896186
			-0.281577  0.407395  0.868760
			-0.337611  0.458453  0.822095
			-0.472403  0.558887  0.681529
			-0.236375  0.327664  0.914748
			-0.103110  0.428598  0.897593
			-0.297966  0.403834  0.864947
			-0.206973  0.314545  0.926404
			-0.310438  0.296018  0.903328
			-0.168309  0.259992  0.950829
			-0.245570  0.300692  0.921564
			-0.314419  0.342086  0.885504
			-0.288475  0.216569  0.932674
			-0.335984  0.180972  0.924318
			-0.276911  0.223928  0.934439
			-0.099421  0.230515  0.967976
			-0.095471  0.241712  0.965640
			-0.468649  0.180084  0.864834
			-0.654982  0.099283  0.749094
			-0.715870  0.061231  0.695543
			-0.789049  0.011116  0.614229
			-0.861361 -0.042566  0.506207
			-0.828485 -0.090537  0.552644
			-0.610333  0.124819  0.782249
			-0.707869 -0.312816  0.633299
			-0.772812 -0.136626  0.619754
			-0.769844 -0.232157  0.594511
			-0.654972 -0.124985  0.745245
			-0.708298 -0.263110  0.655048
			-0.738797 -0.282618  0.611806
			-0.847698 -0.158802  0.506153
			-0.807391 -0.131283  0.575226
			-0.685157 -0.012001  0.728297
			-0.792322  0.083363  0.604381
			-0.681318  0.257246  0.685296
			-0.603139  0.419085  0.678669
			-0.411569  0.443542  0.796167
			-0.356738  0.373455  0.856312
			-0.485773  0.509568  0.710187
			 0.544413  0.212313  0.811503
			 0.522387  0.360029  0.772976
			 0.451290 -0.007067  0.892349
			 0.553617  0.055062  0.830949
			 0.402880  0.139640  0.904538
			 0.226707  0.281121  0.932510
			 0.019987  0.400753  0.915968
			-0.251886  0.581204  0.773793
			-0.019615  0.206596  0.978230
			 0.651241  0.119605  0.749386
			 0.615223  0.238712  0.751343
			 0.574789  0.170431  0.800356
			 0.533964  0.117052  0.837366
			 0.311505  0.201268  0.928685
			 0.005810  0.368570  0.929582
			 0.733256  0.286112  0.616826
			 0.731293  0.283601  0.620308
			 0.601664  0.420480  0.679115
			 0.610255  0.373324  0.698727
			 0.676219  0.357665  0.644053
			 0.890472  0.042362  0.453062
			 0.858519 -0.010670  0.512670
			 0.793083  0.053217  0.606785
			 0.798030  0.091745  0.595594
			 0.680047  0.232338  0.695381
			 0.913294 -0.017930  0.406905
			 0.958890  0.002331  0.283770
			 0.676344  0.105979  0.728922
			 0.713776  0.202737  0.670389
			 0.648676  0.232882  0.724559
			-0.407282  0.642209  0.649376
			-0.320719  0.505824  0.800801
			-0.281431  0.648084  0.707661
			-0.148574  0.609290  0.778904
			-0.271208  0.518987  0.810616
			-0.000466  0.348989  0.937127
			-0.118654  0.326946  0.937565
			-0.242278  0.395204  0.886067
			-0.239208  0.451306  0.859711
			-0.310750  0.493300  0.812459
			-0.328809  0.273937  0.903794
			-0.225587  0.317066  0.921184
			-0.064774  0.310119  0.948489
			-0.210752  0.297620  0.931132
			 0.000928  0.300459  0.953794
			-0.143863  0.338972  0.929732
			-0.204467  0.266155  0.941995
			-0.334707  0.283481  0.898671
			-0.362442  0.354605  0.861911
			-0.213227  0.401116  0.890865
			-0.361146  0.206232  0.909419
			-0.178256  0.213744  0.960489
			-0.096589  0.257059  0.961557
			-0.595981  0.171933  0.784376
			-0.475824  0.195079  0.857634
			-0.723490  0.070754  0.686699
			-0.828948  0.029841  0.558529
			-0.914230 -0.073341  0.398502
			-0.901657 -0.017061  0.432116
			-0.900327 -0.119748  0.418416
			-0.688029  0.127573  0.714382
			-0.789420 -0.329645  0.517833
			-0.764081 -0.476315  0.435092
			-0.789001 -0.426943  0.441811
			-0.869884 -0.280721  0.405583
			-0.825231 -0.344521  0.447548
			-0.792325 -0.270089  0.547058
			-0.917762 -0.189505  0.349000
			-0.903662  0.025879  0.427464
			-0.921815 -0.205821  0.328474
			-0.847185  0.150766  0.509458
			-0.750783  0.286956  0.594963
			-0.621862  0.387547  0.680511
			-0.523851  0.368154  0.768142
			-0.507176  0.282624  0.814184
			-0.406744  0.262031  0.875157
			 0.782249  0.236840  0.576189
			 0.766764  0.137022  0.627134
			 0.578732  0.106882  0.808484
			 0.500858  0.334191  0.798409
			 0.657306  0.170543  0.734074
			 0.312323  0.399482  0.861899
			 0.052929  0.529775  0.846485
			 0.125851  0.621664  0.773108
			-0.070879  0.579794  0.811674
			-0.180394  0.724856  0.664863
			 0.621913  0.234237  0.747234
			 0.598069  0.209270  0.773640
			 0.554388  0.151696  0.818317
			 0.550386  0.075883  0.831455
			 0.383176  0.159697  0.909765
			 0.144259  0.317563  0.937200
			 0.776716  0.300910  0.553323
			 0.621092  0.474699  0.623623
			 0.680845  0.395776  0.616289
			 0.770535  0.305757  0.559276
			 0.667096  0.421832  0.614036
			 0.764594  0.245350  0.595986
			 0.955342 -0.029235  0.294052
			 0.931077 -0.049396  0.361463
			 0.929627  0.105324  0.353131
			 0.826366  0.153122  0.541916
			 0.896082  0.109668  0.430128
			 0.917112 -0.029199  0.397558
			 0.967764 -0.150543  0.201914
			 0.989896 -0.137209  0.035773
			 0.989307 -0.135000 -0.055202
			 0.847034  0.192988  0.495267
			 0.758116  0.193413  0.622778
			 0.686212  0.297084  0.663969
			 0.650764  0.262491  0.712464
			-0.310817  0.457041  0.833371
			-0.049635  0.733121  0.678284
			-0.110049  0.532095  0.839502
			 0.073342  0.626332  0.776099
			-0.261783  0.416787  0.870493
			-0.026052  0.400950  0.915729
			-0.010686  0.385485  0.922652
			-0.103828  0.402656  0.909444
			-0.105916  0.307698  0.945571
			-0.135320  0.322116  0.936979
			-0.101040  0.347437  0.932244
			-0.146797  0.321103  0.935598
			-0.279215  0.441492  0.852716
			-0.390361  0.236837  0.889678
			-0.379152  0.306584  0.873069
			-0.357226  0.451613  0.817579
			-0.165610  0.454520  0.875206
			 0.221772  0.225347  0.948702
			 0.177706  0.354557  0.917992
			 0.412432  0.227835  0.882038
			-0.203436  0.267987  0.941699
			-0.319718  0.304182  0.897359
			-0.336873  0.279800  0.899015
			-0.298903  0.320701  0.898781
			 0.131253  0.251705  0.958863
			-0.290864  0.209457  0.933555
			-0.167812  0.189276  0.967478
			-0.600794  0.166926  0.781781
			-0.707233  0.135750  0.693825
			-0.514289  0.198036  0.834439
			-0.351357  0.225645  0.908643
			-0.792099  0.089081  0.603857
			-0.894520  0.043929  0.444865
			-0.934269 -0.059105  0.351637
			-0.939973 -0.092651  0.328430
			-0.937914 -0.131207  0.321096
			-0.927138 -0.007335  0.374649
			-0.832214 -0.398683  0.385321
			-0.777324 -0.553541  0.298931
			-0.821893 -0.476055  0.312831
			-0.775311 -0.547287  0.315231
			-0.824249 -0.463459  0.325299
			-0.926006 -0.289604  0.242163
			-0.865548 -0.432972  0.251718
			-0.885639 -0.412407  0.213456
			-0.944765 -0.206544  0.254477
			-0.954298  0.014016  0.298527
			-0.915705  0.041470  0.399705
			-0.840020  0.178740  0.512269
			-0.963931 -0.089489  0.250657
			-0.968046 -0.219936  0.120482
			-0.948462 -0.301549  0.097404
			-0.718615  0.295042  0.629716
			-0.625082  0.301460  0.719996
			-0.505350  0.337263  0.794276
			-0.681870  0.253501  0.686141
			-0.615813  0.282081  0.735666
			 0.825442  0.246269  0.507934
			 0.864668  0.190965  0.464631
			 0.884878  0.147460  0.441867
			 0.876345  0.095293  0.472164
			 0.753023  0.157673  0.638824
			 0.267980  0.612477  0.743680
			 0.626196  0.315663  0.712906
			 0.406700  0.557916  0.723412
			-0.038865  0.776849  0.628487
			 0.013100  0.771539  0.636047
			-0.241289  0.887252  0.393147
			-0.017051  0.833466  0.552308
			 0.628356  0.194849  0.753128
			 0.593361  0.182042  0.784081
			 0.464997  0.157581  0.871175
			 0.510264  0.096424  0.854595
			 0.565960  0.118492  0.815873
			 0.577996  0.079591  0.812149
			 0.747645  0.351461  0.563473
			 0.622788  0.464441  0.629627
			 0.626572  0.470047  0.621662
			 0.723448  0.378487  0.577382
			 0.831681  0.271850  0.484152
			 0.926234  0.127461  0.354747
			 0.988735 -0.147346  0.026293
			 0.992334 -0.066144  0.104394
			 0.988124  0.089420  0.124963
			 0.943194  0.150239  0.296333
			 0.973535  0.003109  0.228518
			 0.966870 -0.090767  0.238589
			 0.921405 -0.327200 -0.209650
			 0.952932 -0.269864 -0.138181
			 0.874788 -0.287675 -0.389859
			 0.875054 -0.250608 -0.414098
			 0.927218  0.070564  0.367814
			 0.853796  0.101754  0.510567
			 0.829604  0.104087  0.548565
			 0.711391  0.159739  0.684402
			-0.261262  0.320498  0.910507
			 0.126204  0.739308  0.661435
			-0.104366  0.491064  0.864849
			 0.079381  0.594809  0.799938
			 0.236272  0.585448  0.775517
			 0.246145  0.627151  0.738982
			-0.199342  0.333098  0.921579
			-0.069605  0.449762  0.890432
			-0.200574  0.490126  0.848261
			-0.239924  0.540124  0.806661
			-0.200616  0.433712  0.878435
			-0.114820  0.354988  0.927793
			-0.131502  0.369138  0.920024
			-0.476109  0.496995  0.725476
			-0.400137  0.583847  0.706409
			 0.557585  0.212984  0.802332
			 0.444821  0.144514  0.883884
			-0.172738  0.240144  0.955245
			-0.251361  0.261782  0.931820
			-0.323053  0.235056  0.916725
			-0.347468  0.292550  0.890888
			-0.211497  0.306625  0.928036
			-0.369756  0.247516  0.895554
			-0.026876  0.272538  0.961770
			-0.135410  0.234790  0.962568
			 0.593323  0.080365  0.800943
			 0.290881  0.160046  0.943278
			-0.227103  0.242004  0.943323
			-0.192279  0.248705  0.949302
			-0.697905  0.126137  0.704995
			-0.608073  0.166430  0.776239
			-0.768574  0.097150  0.632342
			-0.781380  0.104795  0.615194
			-0.495172  0.207881  0.843558
			-0.315634  0.277731  0.907326
			-0.218376  0.251807  0.942818
			-0.839440  0.079837  0.537556
			-0.951213  0.012960  0.308262
			-0.935572  0.027277  0.352081
			-0.876874  0.053850  0.477695
			-0.957306 -0.044416  0.285646
			-0.961579 -0.085560  0.260854
			-0.966397 -0.126303  0.223887
			-0.964216 -0.151658  0.217458
			-0.815732 -0.551171  0.175476
			-0.823796 -0.523456  0.217612
			-0.925506 -0.365760  0.098280
			-0.959195 -0.229341  0.165370
			-0.870739 -0.482756  0.093595
			-0.901099 -0.433489 -0.010370
			-0.956107 -0.096483  0.276678
			-0.896453 -0.107349  0.429940
			-0.850216  0.051649  0.523894
			-0.753925  0.197754  0.626491
			-0.963338 -0.224209  0.147346
			-0.942375 -0.334558 -0.000296
			-0.569208  0.469306  0.675096
			-0.613581  0.371762  0.696643
			-0.800414  0.319741  0.507054
			-0.791447  0.167266  0.587906
			-0.728186  0.368283  0.578026
			 0.837226  0.248782  0.486991
			 0.921066  0.163213  0.353552
			 0.886565  0.179762  0.426249
			 0.096326  0.780605  0.617557
			 0.744536  0.466081  0.477949
			 0.281577  0.718935  0.635489
			 0.014220  0.888254  0.459133
			-0.332017  0.873029  0.357191
			-0.351387  0.863597  0.361561
			-0.581536  0.808930  0.086304
			-0.149939  0.892767  0.424836
			 0.547605  0.192111  0.814384
			 0.469829  0.184546  0.863252
			 0.626150  0.152703  0.764603
			 0.676894  0.405704  0.614181
			 0.749934  0.333839  0.571096
			 0.652434  0.437564  0.618764
			 0.635334  0.444091  0.631771
			 0.848651  0.244491  0.469058
			 0.750935  0.355181  0.556726
			 0.961969  0.056756  0.267196
			 0.992628 -0.078242  0.092561
			 0.933847 -0.193647 -0.300717
			 0.983586 -0.024402 -0.178785
			 0.990477  0.069834  0.118651
			 0.987489 -0.154261 -0.032694
			 0.982444 -0.184420 -0.028164
			 0.841713 -0.371894 -0.391426
			 0.650758 -0.455760 -0.607286
			 0.645751 -0.391756 -0.655388
			 0.798554 -0.369219 -0.475382
			 0.660203 -0.397570 -0.637236
			 0.703904 -0.314945 -0.636654
			 0.770803 -0.216446 -0.599177
			 0.976046  0.009894  0.217338
			 0.902905  0.084866  0.421380
			 0.797559  0.119714  0.591243
			 0.682972  0.140932  0.716720
			 0.143925  0.819995  0.553980
			 0.256682  0.685102  0.681725
			-0.133264  0.575009  0.807221
			 0.004764  0.623811  0.781561
			 0.126287  0.681614  0.720731
			 0.199924  0.634118  0.746943
			 0.234961  0.557485  0.796243
			 0.210316  0.651838  0.728611
			-0.439362  0.699163  0.564032
			-0.291665  0.611354  0.735648
			-0.258337  0.521870  0.812966
			-0.152773  0.535466  0.830625
			-0.153165  0.537872  0.828996
			-0.534294  0.590972  0.604386
			-0.543589  0.690728  0.476870
			-0.227195  0.237370  0.944477
			-0.337300  0.164769  0.926866
			 0.242499  0.294384  0.924409
			 0.001729  0.211389  0.977401
			-0.219054  0.180113  0.958945
			 0.208068  0.163920  0.964281
			 0.379820  0.282855  0.880755
			 0.568531  0.096191  0.817019
			 0.562475  0.158845  0.811412
			-0.744217  0.111867  0.658504
			-0.648989  0.139103  0.747973
			-0.818344  0.080837  0.569016
			-0.817406  0.082217  0.570164
			-0.540313  0.182250  0.821491
			-0.417961  0.245165  0.874758
			-0.199536  0.319807  0.926234
			-0.300682  0.276338  0.912813
			-0.470890  0.233746  0.850662
			-0.192783  0.284455  0.939106
			-0.214342  0.243193  0.945999
			-0.981367 -0.044951  0.186810
			-0.976712 -0.018748  0.213736
			-0.952604  0.002952  0.304200
			-0.922272  0.023959  0.385798
			-0.874218  0.063371  0.481380
			-0.978344 -0.112415  0.173796
			-0.971524 -0.193786  0.136338
			-0.982356 -0.130607  0.133863
			-0.976597 -0.117127  0.180388
			-0.978087 -0.185838  0.093865
			-0.981990 -0.137345  0.129741
			-0.836332 -0.547668  0.024655
			-0.836948 -0.547243  0.006459
			-0.943531 -0.331020 -0.013259
			-0.966723 -0.247921  0.063108
			-0.896632 -0.439186 -0.056279
			-0.976055 -0.190102  0.105729
			-0.890235 -0.450425 -0.067821
			-0.852898 -0.492617 -0.172899
			-0.832710 -0.530895 -0.157306
			-0.912941 -0.325855  0.245675
			-0.915471 -0.218051  0.338181
			-0.888366 -0.277928  0.365461
			-0.888228 -0.142806  0.436643
			-0.850422  0.007975  0.526041
			-0.913898 -0.395156  0.092964
			-0.668798  0.460311  0.583801
			-0.639524  0.581131  0.503285
			-0.845895  0.213584  0.488717
			-0.845638  0.430781  0.315158
			-0.812962  0.455833  0.362366
			-0.786583  0.408926  0.462674
			-0.797370  0.477757  0.368714
			-0.750648  0.494716  0.437931
			 0.791261  0.326882  0.516773
			 0.864737  0.265866  0.426081
			 0.963040  0.159041  0.217395
			 0.913310  0.243547  0.326418
			 0.966733  0.168320  0.192605
			-0.161834  0.847453  0.505601
			 0.096178  0.809762  0.578823
			 0.949124  0.267922  0.165474
			 0.851289  0.490001  0.187631
			 0.528766  0.744763  0.407106
			-0.303120  0.831246  0.465991
			-0.076862  0.822200  0.563985
			 0.492653  0.180454  0.851311
			 0.728090  0.462853  0.505621
			 0.642720  0.521921  0.560812
			 0.662599  0.467860  0.584867
			 0.739847  0.388740  0.549097
			 0.802493  0.319834  0.503698
			 0.906151  0.192682  0.376516
			 0.980405 -0.184021 -0.070296
			 0.992414 -0.121273 -0.020175
			 0.905238 -0.313001 -0.287358
			 0.863008 -0.176188 -0.473471
			 0.893809 -0.059812 -0.444441
			 0.986327  0.011335 -0.164410
			 0.999384 -0.022909  0.026577
			 0.946232 -0.231347 -0.226107
			 0.920095 -0.273374 -0.280520
			 0.684941 -0.417969 -0.596790
			 0.527112 -0.449462 -0.721205
			 0.504020 -0.374323 -0.778362
			 0.572465 -0.375985 -0.728642
			 0.614281 -0.348145 -0.708134
			 0.605263 -0.382313 -0.698207
			 0.657911 -0.239984 -0.713835
			 0.681208 -0.129062 -0.720624
			 0.771569 -0.109983 -0.626567
			 0.962158  0.048274  0.268181
			 0.931004  0.026169  0.364070
			 0.848819  0.073507  0.523548
			 0.754476  0.091865  0.649867
			 0.651145  0.135565  0.746748
			-0.111482  0.732970  0.671064
			-0.003470  0.765941  0.642901
			-0.148181  0.734021  0.662763
			 0.116210  0.764930  0.633544
			 0.168906  0.768466  0.617196
			 0.065385  0.648203  0.758655
			 0.222443  0.710124  0.668014
			 0.242575  0.754816  0.609434
			-0.135910  0.743575  0.654694
			-0.577751  0.775101  0.255778
			-0.555267  0.821940  0.126861
			-0.472453  0.775598  0.418613
			-0.341340  0.710652  0.615192
			-0.398606  0.753987  0.522128
			-0.324700  0.687369  0.649687
			-0.270157  0.673674  0.687879
			-0.190356  0.739957  0.645157
			-0.140971  0.694298  0.705746
			-0.619947  0.681267  0.389283
			-0.630522  0.757890  0.167466
			-0.290780  0.186046  0.938527
			-0.261846  0.197978  0.944585
			-0.308992  0.115979  0.943966
			 0.499613  0.243057  0.831451
			 0.292493  0.158715  0.943005
			-0.053181  0.073851  0.995850
			 0.493710  0.211676  0.843471
			 0.511336  0.251275  0.821825
			-0.798657  0.124160  0.588839
			-0.721342  0.135787  0.679137
			-0.632479  0.154949  0.758921
			-0.189109  0.238049  0.952665
			-0.181914  0.328092  0.926964
			-0.140539  0.353855  0.924681
			-0.186515  0.304994  0.933912
			-0.272481  0.195676  0.942054
			-0.399613  0.189657  0.896850
			-0.208496  0.244284  0.947024
			-0.534345  0.170510  0.827890
			-0.993733 -0.085030  0.072555
			-0.993803 -0.074211  0.082758
			-0.980726 -0.014984  0.194814
			-0.991144 -0.050475  0.122822
			-0.975994 -0.029630  0.215773
			-0.945034  0.010086  0.326817
			-0.911066  0.049412  0.409288
			-0.957343 -0.288947  0.002059
			-0.968850 -0.245286  0.034110
			-0.966803 -0.249845  0.053562
			-0.979846 -0.188185  0.066989
			-0.982651 -0.172800  0.067358
			-0.990019 -0.116909  0.078706
			-0.960025 -0.263530 -0.094357
			-0.981046 -0.166955 -0.098358
			-0.992351 -0.115531  0.043502
			-0.982343 -0.177988  0.057635
			-0.853180 -0.503662 -0.135680
			-0.966422 -0.256960 -0.000313
			-0.942435 -0.327512 -0.067464
			-0.980695 -0.194887  0.016048
			-0.973899 -0.226976 -0.001937
			-0.846401 -0.532502 -0.006871
			-0.821926 -0.556080 -0.123342
			-0.833663 -0.522557 -0.178716
			-0.874255 -0.435486  0.214545
			-0.863805 -0.486609  0.130589
			-0.925759 -0.201780  0.319774
			-0.936070  0.015838  0.351457
			-0.883641  0.030392  0.467179
			-0.716530  0.597932  0.359252
			-0.687062  0.706870  0.168169
			-0.895583  0.254669  0.364793
			-0.879045  0.413524  0.237228
			-0.855438  0.505089  0.114500
			-0.805588  0.565994  0.175155
			-0.779752  0.566487  0.266606
			 0.819531  0.368162  0.439119
			 0.872603  0.338063  0.352530
			 0.921595  0.298073  0.248627
			-0.097816  0.826834  0.553875
			-0.207271  0.785176  0.583556
			 0.234298  0.848757  0.474043
			 0.888344  0.429525  0.162338
			 0.764687  0.632214  0.124738
			 0.596970  0.771371  0.220485
			 0.525913  0.229576  0.818969
			 0.772618  0.510928  0.376848
			 0.680755  0.528322  0.507394
			 0.825326  0.437290  0.357232
			 0.680386  0.615649  0.397556
			 0.652025  0.600833  0.462454
			 0.748733  0.449825  0.486885
			 0.791316  0.399365  0.462954
			 0.682163  0.507736  0.526173
			 0.901228  0.229159  0.367796
			 0.943476  0.141834  0.299561
			 0.890892 -0.281319 -0.356610
			 0.773471 -0.411193 -0.482352
			 0.998843 -0.022248 -0.042631
			 0.856951 -0.245051 -0.453415
			 0.739007 -0.430154 -0.518494