<?xml version="1.0"?>
<VTKFile type="PolyData" version="0.1" byte_order="LittleEndian" compressor="vtkZLibDataCompressor">
	<PolyData>
		<Piece NumberOfPoints="1451" NumberOfVerts="0" NumberOfLines="0" NumberOfStrips="0" NumberOfPolys="2880">
		<PointData Normals="Normals">
		<DataArray type="Float32" Name="Normals" NumberOfComponents="3" format="ascii">
			-0.286154 -0.933711  0.215174
			-0.664569 -0.488408  0.565514
			-0.921014 -0.047705  0.386598
			-0.575307 -0.794313  0.195161
			 0.044513 -0.930305  0.364076
			-0.606822 -0.589039  0.533667
			-0.073707 -0.989148  0.127100
			-0.677931  0.342793  0.650309
			-0.277380 -0.184371  0.942904
			-0.889122  0.058732  0.453885
			-0.827235  0.187820  0.529534
			-0.899266 -0.342489  0.272068
			-0.514369 -0.827782  0.224055
			-0.071690 -0.436706  0.896743
			-0.291795 -0.886907  0.358122
			-0.101645 -0.785079  0.610999
			-0.814788  0.177158  0.552029
			-0.807598  0.490895  0.326814
			-0.849831  0.356456  0.388235
			-0.734096 -0.105375  0.670820
			-0.424661 -0.728594  0.537415
			-0.422211  0.228265  0.877287
			-0.640174  0.231696  0.732458
			-0.752813 -0.182590  0.632402
			-0.781850 -0.278398  0.557857
			-0.710740 -0.163206  0.684261
			-0.539224 -0.385431  0.748786
			-0.727945 -0.031550  0.684909
			-0.409386 -0.744084  0.527961
			-0.570244 -0.679264  0.461977
			-0.269991 -0.269223  0.924459
			-0.157478 -0.793592  0.587718
			-0.721150  0.198204  0.663821
			-0.207802 -0.528806  0.822911
			-0.679702  0.661801  0.316266
			-0.833085  0.495381  0.246103
			-0.785810  0.573327  0.231947
			-0.850697  0.115778  0.512748
			-0.865314  0.336263  0.371696
			-0.855458  0.449590  0.257024
			-0.763883 -0.258392  0.591368
			-0.462130  0.187812  0.866696
			-0.501410  0.170103  0.848323
			-0.336144 -0.004892  0.941798
			-0.597082  0.070062  0.799115
			-0.476691 -0.452958  0.753389
			-0.251819 -0.640599  0.725410
			-0.461592 -0.302761  0.833828
			-0.273429 -0.471642  0.838326
			-0.205779 -0.534252  0.819896
			 0.017678 -0.674811  0.737779
			-0.426788 -0.333917  0.840447
			 0.042442 -0.666114  0.744641
			-0.552145 -0.703355  0.447692
			-0.190787 -0.873389  0.448099
			 0.076267 -0.830925  0.551133
			-0.821296 -0.312517  0.477290
			-0.203138 -0.341322  0.917733
			 0.012539 -0.571075  0.820802
			-0.595791  0.047826  0.801714
			-0.657084  0.734390  0.170036
			-0.643763  0.725786  0.242495
			-0.726126  0.672645  0.142442
			-0.665407  0.702102  0.253548
			-0.824416  0.538307  0.174827
			-0.850717  0.493349  0.181348
			-0.854462  0.164757  0.492697
			-0.874485  0.361070  0.323888
			-0.867488  0.447460  0.217358
			-0.874916  0.083204  0.477072
			-0.504475  0.071393  0.860470
			-0.534164  0.103332  0.839042
			-0.510029 -0.033937  0.859487
			 0.158189 -0.370686  0.915188
			-0.351667 -0.107916  0.929884
			-0.128556 -0.153431  0.979761
			-0.118199 -0.656516  0.744994
			 0.131985 -0.716021  0.685488
			 0.043069 -0.576819  0.815736
			 0.163660 -0.567667  0.806827
			 0.212394 -0.629471  0.747432
			 0.374539 -0.650477  0.660757
			-0.439071 -0.384647  0.811950
			-0.074423 -0.687797  0.722078
			-0.500583 -0.194989  0.843443
			 0.012605 -0.698378  0.715618
			 0.421452 -0.625934  0.656189
			 0.260141 -0.753606  0.603659
			-0.640330 -0.646290  0.415075
			 0.328369 -0.868653  0.370966
			-0.219611 -0.913115  0.343500
			 0.395422 -0.747799  0.533327
			-0.919794 -0.151085  0.362151
			-0.923722  0.150512  0.352254
			 0.100303 -0.385500  0.917240
			-0.272520 -0.049020  0.960901
			-0.807189  0.585247  0.077018
			-0.692641  0.672682  0.260283
			-0.750211  0.660886  0.020315
			-0.548249  0.830038  0.102274
			-0.586015  0.759629  0.282048
			-0.646946  0.758023 -0.082841
			-0.865861  0.469814  0.171929
			-0.899991  0.356563  0.250756
			-0.880533  0.418395  0.222727
			-0.878293  0.435410  0.197535
			-0.541933 -0.104214  0.833935
			-0.179401 -0.199211  0.963395
			 0.220246 -0.427360  0.876844
			-0.079912 -0.654682  0.751668
			-0.621348  0.121093  0.774121
			-0.438823 -0.092258  0.893825
			 0.223671 -0.755738  0.615493
			 0.318831 -0.715206  0.621955
			 0.386155 -0.580066  0.717222
			 0.536038 -0.549678  0.640717
			 0.382336 -0.645088  0.661574
			 0.469518 -0.546991  0.693076
			 0.552164 -0.519021  0.652482
			-0.324203 -0.639535  0.697057
			-0.517241 -0.427542  0.741397
			-0.007405 -0.904125  0.427203
			 0.183230 -0.849758  0.494306
			 0.169108 -0.791685  0.587058
			 0.615809 -0.502968  0.606468
			 0.683885 -0.501656  0.529758
			 0.591496 -0.606553  0.531249
			 0.543645 -0.599748  0.587156
			-0.740842 -0.529108  0.413761
			-0.839176 -0.361066  0.406711
			 0.597493 -0.685362  0.416270
			 0.634997 -0.704069  0.317908
			 0.554510 -0.787436  0.269190
			 0.218542 -0.930883  0.292741
			-0.277963 -0.896600  0.344739
			-0.899742 -0.106633  0.423194
			-0.943749  0.113301  0.310646
			-0.929300  0.278168  0.242947
			-0.893060  0.363313 -0.265420
			-0.819112  0.535613  0.205365
			-0.893543  0.430728  0.126709
			-0.941631  0.333101  0.048726
			-0.637693  0.691601  0.339170
			-0.721393  0.616725  0.315027
			-0.640591  0.757892 -0.123461
			-0.548320  0.826680 -0.126276
			-0.355919  0.832024  0.425509
			-0.334430  0.876611 -0.345990
			-0.576864  0.698228  0.423918
			-0.295809  0.453537 -0.840715
			-0.893910  0.403801  0.194603
			-0.911382  0.361605  0.196531
			-0.901496  0.398053  0.169877
			-0.572742 -0.230559  0.786645
			-0.386891 -0.096865  0.917024
			-0.851330 -0.175249  0.494494
			-0.932469 -0.144218  0.331215
			-0.491416 -0.307254  0.814927
			-0.799717 -0.387896  0.458246
			 0.240013 -0.822085  0.516304
			 0.257210 -0.800671  0.541081
			 0.254769 -0.731151  0.632860
			 0.758402 -0.391194  0.521338
			 0.262486 -0.646846  0.716025
			 0.335285 -0.536723  0.774281
			 0.525542 -0.356530  0.772459
			-0.365895 -0.793657  0.486034
			-0.517853 -0.460381  0.721026
			 0.044759 -0.998410  0.034276
			 0.247376 -0.967585  0.050830
			 0.261998 -0.931916  0.250779
			 0.257945 -0.887548  0.381736
			 0.810443 -0.508929  0.290126
			 0.545647 -0.607207  0.577555
			 0.652566 -0.528747  0.542756
			-0.942467 -0.023199  0.333492
			-0.467283 -0.766422  0.440730
			-0.829368 -0.496188  0.256801
			 0.717522 -0.612859  0.331008
			 0.736767 -0.602502  0.306865
			 0.714206 -0.631602  0.301643
			 0.491071 -0.863740  0.113151
			 0.775246 -0.594710  0.212871
			 0.016604 -0.943850  0.329958
			-0.942522  0.232421  0.240070
			-0.938529  0.154451  0.308721
			-0.942282  0.289251  0.168640
			-0.985894  0.164720 -0.029677
			-0.919111  0.370593  0.133778
			-0.814929  0.511448  0.272601
			-0.976614  0.194466  0.091699
			-0.754858  0.581377  0.303628
			-0.539637  0.820890 -0.186900
			-0.701053  0.692837 -0.168822
			-0.672991  0.723807 -0.152270
			-0.319951  0.947425 -0.004225
			-0.155009  0.570897 -0.806256
			-0.030895  0.619018 -0.784769
			-0.017178  0.563581 -0.825882
			-0.080105  0.379680 -0.921643
			 0.003071 -0.029012 -0.999574
			 0.093346 -0.254397 -0.962584
			-0.920529  0.362230  0.146343
			-0.861255  0.506572 -0.040311
			-0.994767  0.062489 -0.080828
			-0.904013 -0.240934 -0.353144
			-0.954836 -0.154325 -0.253913
			-0.748039 -0.632899  0.199692
			-0.793327 -0.389044 -0.468271
			 0.235788 -0.899271  0.368396
			 0.164944 -0.928314  0.333207
			 0.170625 -0.857710  0.484996
			 0.159853 -0.798584  0.580268
			 0.194416 -0.706610  0.680371
			 0.795193 -0.028080  0.605706
			 0.923148 -0.229944  0.308097
			 0.186054 -0.618936  0.763088
			 0.289538 -0.401561  0.868859
			 0.470959 -0.035124  0.881456
			 0.597808 -0.061404  0.799284
			-0.357895 -0.797559  0.485603
			-0.058197 -0.998169 -0.016505
			 0.313901 -0.924888 -0.214588
			 0.190454 -0.915485 -0.354422
			 0.301634 -0.951568 -0.059455
			 0.285070 -0.946426  0.151698
			 0.921402 -0.383529  0.062644
			 0.784993 -0.619406  0.011036
			 0.722356 -0.656784  0.216419
			 0.702694 -0.652997  0.282518
			 0.536534 -0.555761  0.635028
			 0.489175 -0.512023  0.706073
			 0.819473 -0.527851  0.223244
			 0.570235 -0.548005  0.611982
			-0.958391  0.170793  0.228727
			-0.977116 -0.059440  0.204235
			-0.975306  0.074968  0.207745
			-0.993215 -0.111998  0.031314
			-0.871767 -0.486782 -0.055361
			-0.223713 -0.974497 -0.017527
			 0.574467 -0.784149  0.234731
			 0.774266 -0.508519  0.376723
			 0.721099 -0.692808 -0.005847
			 0.389026 -0.920012 -0.047296
			 0.853719 -0.516972  0.062489
			 0.769033 -0.607056  0.200178
			-0.984468  0.151700  0.088377
			-0.963760  0.261867  0.050923
			-0.926966  0.372958  0.040452
			-0.820785  0.548917 -0.158122
			-0.997915 -0.055647  0.032698
			-0.868571  0.453706 -0.199335
			-0.978095  0.040012  0.204276
			-0.460404  0.764791 -0.450693
			-0.061852  0.655772 -0.752421
			-0.535109  0.822462 -0.192911
			-0.626354  0.733312 -0.264452
			-0.062585  0.669164 -0.740475
			-0.037924  0.588196 -0.807829
			 0.140921  0.382281 -0.913238
			 0.223277 -0.207271 -0.952463
			 0.221558 -0.296627 -0.928937
			-0.006595  0.401171 -0.915979
			-0.942705  0.315119  0.109580
			-0.976564  0.162922  0.140638
			-0.950117  0.262460 -0.168501
			 0.277371  0.378325 -0.883139
			-0.960305 -0.249518 -0.124723
			-0.875243 -0.379226 -0.300228
			-0.276920 -0.897824 -0.342384
			-0.603752 -0.531863 -0.593806
			-0.677739 -0.582254 -0.449054
			 0.199529 -0.970171  0.137684
			 0.096464 -0.993422  0.061705
			 0.101486 -0.963994  0.245798
			 0.113180 -0.930038  0.349600
			 0.130836 -0.816912  0.561727
			 0.578778  0.247186  0.777120
			 0.693900  0.279095  0.663783
			 0.870983  0.104392  0.480095
			 0.948804 -0.120098  0.292144
			 0.120544 -0.740328  0.661349
			 0.151432 -0.518472  0.841579
			 0.295851 -0.130974  0.946213
			 0.415037  0.214366  0.884190
			 0.174550 -0.817377 -0.549024
			 0.294137 -0.914612 -0.277431
			 0.243557 -0.835736 -0.492165
			 0.215321 -0.970539 -0.108125
			 0.974649 -0.168856  0.146790
			 0.832140 -0.536650 -0.139824
			 0.916072 -0.385434 -0.110694
			 0.760465 -0.639452 -0.113113
			 0.724001 -0.664252  0.185991
			 0.626918 -0.607879  0.487295
			 0.451956 -0.585678  0.672843
			 0.630444 -0.693460  0.348789
			 0.384936 -0.717335  0.580736
			-0.980529  0.116142  0.158351
			-0.990528  0.037657  0.132050
			-0.992335 -0.051764 -0.112214
			-0.999864 -0.013623  0.009301
			-0.984796 -0.134664 -0.109736
			-0.632413 -0.771423 -0.070430
			 0.076544 -0.994717 -0.068411
			 0.075211 -0.961359  0.264824
			 0.339348 -0.940485  0.018194
			 0.351481 -0.896480  0.269787
			 0.557691 -0.741107  0.373820
			 0.734109 -0.678454 -0.028025
			 0.708464 -0.705216  0.027376
			 0.793477 -0.600136 -0.101148
			 0.841421 -0.539999 -0.020310
			 0.545618 -0.838034 -0.000757
			 0.872575 -0.486998  0.038041
			 0.396748 -0.836939  0.376994
			 0.567519 -0.773548  0.282038
			 0.706642 -0.707414  0.014936
			 0.832909 -0.552230 -0.036116
			-0.994668  0.096877 -0.035376
			-0.999843  0.004511 -0.017152
			-0.995971  0.044380  0.077927
			-0.969148  0.240002  0.056134
			-0.987165  0.159635  0.004665
			-0.572869  0.522687 -0.631363
			-0.184599  0.512852 -0.838395
			-0.754826 -0.292208 -0.587241
			-0.983180 -0.129981  0.128307
			-0.744561  0.091244 -0.661289
			-0.238007  0.341886 -0.909102
			-0.079147  0.613298 -0.785876
			-0.009475  0.634959 -0.772488
			-0.026682  0.555730 -0.830935
			-0.028051  0.623647 -0.781203
			 0.077205  0.635364 -0.768344
			 0.171230  0.657300 -0.733919
			 0.274642  0.161906 -0.947817
			 0.391719 -0.259018 -0.882874
			-0.996741 -0.017223 -0.078804
			-0.950176 -0.039912 -0.309147
			-0.997158  0.063860 -0.039964
			 0.432000 -0.105794 -0.895647
			 0.546067 -0.373565 -0.749840
			-0.483511 -0.558816 -0.673753
			-0.029642 -0.663230 -0.747828
			-0.288170 -0.618866 -0.730728
			-0.606945 -0.572300 -0.551444
			 0.093635 -0.968927 -0.228941
			 0.039038 -0.998996  0.021995
			 0.065315 -0.997060  0.040060
			 0.097253 -0.975039  0.199604
			 0.108529 -0.903101  0.415488
			 0.395522  0.390674  0.831225
			 0.559782  0.421883  0.713203
			 0.764464  0.313637  0.563228
			 0.950036  0.092359  0.298163
			 0.134346 -0.775539  0.616839
			 0.159395 -0.669423  0.725580
			 0.147419 -0.499972  0.853402
			 0.239046 -0.214173  0.947094
			 0.321530  0.166302  0.932181
			 0.150706 -0.735551 -0.660495
			 0.229392 -0.883556 -0.408298
			 0.236363 -0.929849 -0.281981
			 0.981712 -0.190328 -0.004104
			 0.794895 -0.557810 -0.238727
			 0.742035 -0.632852 -0.221095
			 0.914933 -0.344020 -0.211064
			 0.996687 -0.070785  0.040044
			 0.769312 -0.638803 -0.009467
			 0.779373 -0.596407  0.192034
			 0.676761 -0.632105  0.377409
			 0.485656 -0.786159  0.382220
			 0.505544 -0.823319  0.258014
			-0.999649  0.005644  0.025888
			-0.998228 -0.025761 -0.053633
			-0.987161 -0.118316  0.107307
			-0.991762 -0.027201 -0.125174
			-0.982654 -0.185432 -0.002423
			-0.095387 -0.915485  0.390883
			 0.249621 -0.966181  0.064675
			 0.312269 -0.886558 -0.341325
			 0.528607 -0.505116  0.682226
			 0.362256 -0.560047  0.745063
			 0.467373 -0.874079 -0.132469
			 0.633867 -0.771128  0.059783
			 0.670048 -0.741031 -0.043703
			 0.722129 -0.677881 -0.137862
			 0.757245 -0.642955 -0.114841
			 0.603946 -0.738340  0.300174
			 0.715521 -0.689408 -0.112903
			 0.730352 -0.682932 -0.013807
			-0.996791 -0.028692 -0.074724
			-0.999271 -0.037087  0.009100
			-0.991435 -0.094089 -0.090573
			-0.993323 -0.105236 -0.047272
			-0.999857 -0.013697  0.009902
			-0.167065  0.244595 -0.955124
			-0.099872  0.352328 -0.930532
			 0.076227 -0.233258 -0.969422
			-0.036163 -0.072103 -0.996741
			-0.138903  0.056064 -0.988718
			-0.009846  0.416783 -0.908953
			 0.000914  0.414189 -0.910190
			-0.021970  0.315578 -0.948645
			-0.036150  0.484416 -0.874091
			 0.034304  0.536611 -0.843132
			 0.079693  0.451323 -0.888795
			 0.108925  0.504287 -0.856639
			 0.152478  0.655697 -0.739467
			 0.222171  0.717597 -0.660072
			 0.326275  0.395137 -0.858727
			 0.397152  0.073672 -0.914791
			 0.544144 -0.194590 -0.816114
			-0.988769 -0.090980 -0.118569
			-0.987151 -0.113075 -0.112904
			-0.897807  0.060763 -0.436176
			 0.643251 -0.276101 -0.714140
			 0.695172 -0.504874 -0.511702
			 0.659291 -0.589574 -0.466624
			 0.787023 -0.364163 -0.497975
			 0.111550 -0.360175 -0.926192
			 0.060077 -0.549424 -0.833381
			 0.197711 -0.899950 -0.388586
			 0.040409 -0.906463 -0.420347
			-0.017936 -0.971612 -0.235901
			 0.029159 -0.992844 -0.115801
			 0.045040 -0.988834 -0.142054
			 0.015396 -0.958123 -0.285942
			 0.093767 -0.984905  0.145499
			 0.062722 -0.997744 -0.023941
			 0.086431 -0.943059  0.321200
			 0.079829 -0.837641  0.540357
			 0.292182  0.284492  0.913069
			 0.316073  0.479809  0.818463
			 0.416751  0.597671  0.684915
			 0.638091  0.529424  0.559062
			 0.884095  0.315825  0.344429
			 0.093609 -0.699894  0.708086
			 0.124217 -0.397030  0.909361
			 0.150261 -0.181132  0.971912
			 0.227313  0.005940  0.973804
			-0.045474 -0.709531 -0.703205
			 0.149916 -0.832242 -0.533759
			 0.722685 -0.586428 -0.365825
			 0.691772 -0.666264 -0.278467
			 0.725696 -0.661643 -0.188665
			 0.985569  0.150273  0.077920
			 0.964671  0.180394 -0.192009
			 0.799942 -0.413771 -0.434610
			 0.892935 -0.418632 -0.165572
			 0.605668 -0.710648  0.357975
			 0.908788 -0.361760 -0.207930
			 0.647919 -0.741331  0.175010
			-0.997773 -0.039280 -0.053903
			-0.983274  0.004459 -0.182079
			-0.915101 -0.197324  0.351643
			-0.127190 -0.612448  0.780212
			-0.988204 -0.035298 -0.149021
			-0.991489 -0.060939 -0.115045
			-0.994988 -0.054776 -0.083659
			 0.606878 -0.791316  0.074286
			 0.665453 -0.118514  0.736971
			 0.884246 -0.344795  0.315002
			 0.859385 -0.447032  0.248234
			 0.704483  0.070571  0.706204
			 0.798189 -0.547692  0.250856
			 0.758977 -0.331470  0.560430
			 0.432447 -0.696441  0.572678
			 0.700595 -0.699738 -0.139762
			 0.286454 -0.810745  0.510526
			 0.735625 -0.662337 -0.142004
			 0.819021 -0.573457  0.018724
			 0.795440 -0.590645 -0.135693
			-0.997350 -0.065618 -0.031429
			-0.981300 -0.155382 -0.113611
			-0.983789 -0.154917 -0.090328
			-0.994127 -0.091829 -0.057255
			-0.989807 -0.132582 -0.051991
			-0.986159 -0.156762 -0.053990
			-0.091207  0.011675 -0.995764
			-0.017955  0.211474 -0.977219
			-0.031974 -0.366557 -0.929846
			-0.063333 -0.266211 -0.961832
			-0.038327 -0.166160 -0.985354
			-0.029751  0.042217 -0.998665
			-0.039699  0.170820 -0.984502
			-0.064178  0.043772 -0.996978
			-0.019798  0.105253 -0.994248
			-0.010987  0.295658 -0.955231
			 0.015153  0.372524 -0.927899
			 0.063553  0.222644 -0.972826
			 0.126161  0.282705 -0.950874
			 0.186756  0.336539 -0.922965
			 0.239328  0.510494 -0.825904
			 0.316071  0.636625 -0.703426
			 0.385380  0.558028 -0.734906
			 0.422613  0.717572 -0.553615
			 0.575035  0.166836 -0.800937
			-0.979346 -0.144897 -0.141019
			-0.976667 -0.158383 -0.145040
			-0.975626 -0.174721 -0.132762
			-0.873037 -0.082644 -0.480600
			 0.687073  0.528517 -0.498598
			 0.923149 -0.092114 -0.373243
			 0.638367 -0.680953 -0.358873
			 0.652545 -0.709301 -0.266603
			-0.149048 -0.520802 -0.840565
			 0.185605 -0.757708 -0.625644
			 0.015196 -0.834009 -0.551541
			 0.083207 -0.788561 -0.609302
			 0.043367 -0.970990 -0.235155
			 0.015516 -0.917237 -0.398041
			 0.025893 -0.993969 -0.106562
			 0.030491 -0.984911  0.170355
			 0.003360 -0.913620  0.406556
			-0.004352 -0.770654  0.637239
			 0.035683 -0.630430  0.775425
			 0.173489  0.101145  0.979628
			 0.174779  0.394463  0.902137
			 0.280363  0.635938  0.719013
			 0.371657  0.683491  0.628260
			 0.580901  0.753258  0.308475
			 0.366195  0.814293  0.450364
			 0.797459  0.555497  0.235548
			 0.086407 -0.228922  0.969602
			-0.000388 -0.733241 -0.679968
			 0.162656 -0.707840 -0.687391
			 0.845419  0.532514 -0.041180
			 0.957526  0.115583 -0.264168
			-0.617958 -0.058216 -0.784053
			 0.990730  0.030319  0.132420
			-0.459170  0.221048 -0.860407
			-0.980491 -0.001636 -0.196555
			-0.974234  0.004957 -0.225484
			-0.846321 -0.420348  0.327183
			-0.989307 -0.068643 -0.128686
			-0.982987 -0.036443 -0.180022
			-0.992501 -0.089612 -0.083137
			-0.990621 -0.100952 -0.092078
			 0.718318 -0.316944  0.619327
			 0.767518 -0.337673  0.544879
			 0.747351 -0.478695  0.460779
			 0.766951 -0.609872  0.199606
			 0.770194 -0.607199 -0.195220
			 0.731292 -0.653183 -0.196377
			 0.513571 -0.557440  0.652308
			-0.724807 -0.201269  0.658897
			 0.801246 -0.575186  0.164819
			 0.850803 -0.499617 -0.162843
			 0.842848 -0.532170  0.080015
			 0.884617 -0.456608 -0.094669
			 0.806813 -0.543314 -0.232083
			-0.976944 -0.182747 -0.110380
			-0.981402 -0.178545 -0.070511
			-0.990319 -0.122041 -0.066141
			-0.987794 -0.146099 -0.054017
			-0.986805 -0.155991 -0.043382
			-0.985681 -0.164996 -0.034787
			-0.096839 -0.190182 -0.976961
			-0.179422 -0.257729 -0.949412
			-0.111336 -0.100377 -0.988701
			-0.001032 -0.112041 -0.993703
			 0.091377  0.002000 -0.995814
			 0.078747  0.131962 -0.988122
			 0.072212 -0.002353 -0.997386
			 0.087786  0.066783 -0.993898
			 0.155886  0.082227 -0.984347
			 0.219051  0.213697 -0.952024
			 0.252573  0.319315 -0.913370
			 0.274539  0.480074 -0.833161
			 0.332913  0.682544 -0.650617
			 0.603938  0.719631 -0.342622
			 0.392308  0.821905 -0.412998
			-0.970063 -0.181635 -0.161203
			-0.970452 -0.187997 -0.151260
			-0.972511 -0.190650 -0.133700
			-0.965785 -0.203619 -0.160621
			 0.703245  0.709137 -0.050701
			-0.205679 -0.347524 -0.914835
			-0.030156 -0.543776 -0.838689
			 0.146475 -0.575229 -0.804771
			-0.017497 -0.453235 -0.891219
			 0.016144 -0.794258 -0.607366
			 0.127490 -0.618771 -0.775157
			 0.049541 -0.713446 -0.698956
			 0.015123 -0.800672 -0.598912
			-0.023059 -0.948230 -0.316745
			-0.031581 -0.791146 -0.610811
			-0.035925 -0.998991  0.026970
			-0.030939 -0.963301  0.266635
			-0.058584 -0.875913  0.478899
			 0.009160 -0.556531  0.830777
			-0.061429 -0.657147  0.751255
			-0.032673 -0.450759  0.892047
			 0.020341 -0.304009  0.952452
			 0.077740  0.139340  0.987188
			 0.021411  0.341643  0.939586
			 0.093335  0.562946  0.821207
			 0.192269  0.651489  0.733890
			 0.254375  0.811021  0.526819
			 0.367942  0.839922  0.398937
			 0.420258  0.901152  0.106343
			 0.538790  0.833344 -0.123459
			 0.319431  0.915043  0.246294
			 0.346933  0.914030  0.210208
			-0.959919 -0.219819 -0.173882
			 0.897634  0.296754  0.325868
			 0.019629  0.843648 -0.536538
			-0.966373 -0.203391 -0.157338
			-0.957371 -0.105662  0.268844
			-0.990757 -0.103585 -0.087576
			-0.985058 -0.052487 -0.164032
			-0.989836 -0.087183 -0.112352
			-0.989244 -0.133597 -0.059559
			 0.836230  0.172721  0.520467
			 0.953263 -0.059351  0.296255
			 0.995465 -0.087328  0.037734
			 0.750938 -0.587531 -0.301496
			 0.633859 -0.422030  0.648162
			 0.980383  0.191313  0.047417
			 0.871323 -0.416610 -0.259293
			 0.813599 -0.480092 -0.327975
			 0.949934  0.236536  0.204146
			 0.931456  0.279755  0.232651
			-0.978752 -0.184522 -0.089416
			-0.984457 -0.169295 -0.046730
			-0.989804 -0.140239 -0.024931
			-0.989365 -0.145075 -0.010476
			-0.990360 -0.138302 -0.007765
			-0.100839 -0.266682 -0.958495
			 0.081287 -0.372456 -0.924483
			 0.115403 -0.120768 -0.985950
			 0.090155 -0.261650 -0.960943
			 0.092368 -0.145970 -0.984967
			 0.127908 -0.171544 -0.976838
			 0.189476  0.059444 -0.980084
			 0.142341  0.193276 -0.970764
			 0.141064  0.405023 -0.903359
			 0.218269  0.598485 -0.770827
			 0.276374  0.768614 -0.576932
			 0.387083  0.894524 -0.223591
			 0.292032  0.868329 -0.400902
			-0.976823 -0.179716 -0.116268
			-0.967498 -0.206406 -0.146096
			-0.029980 -0.490677 -0.870826
			 0.070893 -0.203211 -0.976565
			 0.079486 -0.330086 -0.940598
			 0.119240 -0.393432 -0.911588
			 0.095403 -0.516569 -0.850914
			 0.065697 -0.574626 -0.815775
			 0.023850 -0.642027 -0.766311
			-0.014077 -0.642430 -0.766215
			-0.062537 -0.950463 -0.304483
			-0.051561 -0.884974 -0.462776
			-0.017725 -0.662433 -0.748911
			 0.005501 -0.556512 -0.830821
			-0.056527 -0.997922 -0.030938
			-0.057164 -0.972275  0.226744
			-0.090658 -0.953021  0.289017
			-0.116626 -0.872219  0.475008
			-0.112103 -0.707311  0.697957
			-0.077223 -0.539096  0.838697
			-0.022732 -0.081367  0.996425
			-0.039388 -0.313812  0.948668
			-0.042109  0.041842  0.998236
			-0.030994  0.406089  0.913308
			-0.028317  0.645238  0.763457
			 0.104027  0.778119  0.619442
			 0.206792  0.931898  0.297998
			 0.319090  0.936606  0.144744
			 0.318162  0.941156 -0.114015
			-0.525556  0.837862  0.147574
			-0.979767 -0.029203 -0.197998
			-0.536276 -0.148711  0.830839
			-0.991057 -0.115355 -0.067081
			-0.991084 -0.071284 -0.112567
			-0.158851  0.931311 -0.327760
			-0.531816  0.837602  0.124877
			 0.925192 -0.349683  0.147448
			-0.572678  0.776334  0.263335
			 0.941617  0.322305  0.097351
			 0.719312 -0.014398  0.694538
			-0.585108  0.617911  0.525200
			-0.612671  0.601234  0.512983
			-0.988762 -0.144676 -0.037653
			-0.983371 -0.163140 -0.079799
			-0.993427 -0.114382  0.004487
			-0.995363 -0.091924 -0.028332
			-0.996262 -0.080866  0.030374
			-0.993462 -0.114154  0.001786
			 0.129393 -0.204978 -0.970176
			 0.062036 -0.055624 -0.996523
			 0.071963  0.187249 -0.979673
			 0.114357  0.491165 -0.863528
			 0.175818  0.730677 -0.659696
			 0.200803  0.874215 -0.442072
			-0.990394 -0.125339 -0.058392
			-0.987400 -0.136965 -0.079258
			 0.054865 -0.333738 -0.941068
			 0.016411 -0.401456 -0.915731
			-0.011134 -0.428689 -0.903384
			 0.034391 -0.473177 -0.880296
			-0.049096 -0.895899 -0.441538
			 0.014587 -0.685067 -0.728334
			 0.044350 -0.514663 -0.856245
			-0.006615 -0.450481 -0.892762
			 0.026051 -0.231768 -0.972422
			-0.078954 -0.994417 -0.070002
			-0.094223 -0.980775  0.170888
			-0.118356 -0.928004  0.353270
			-0.177062 -0.832381  0.525158
			-0.051166 -0.544821  0.836990
			-0.086039 -0.382852  0.919794
			-0.196669 -0.576845  0.792825
			-0.119286 -0.439010  0.890528
			-0.014559 -0.365572  0.930669
			-0.046493 -0.246157  0.968114
			-0.062404  0.034181  0.997466
			-0.035798  0.421420  0.906159
			-0.060462  0.535100  0.842623
			-0.049898  0.841772  0.537521
			-0.158755  0.682213  0.713711
			 0.066528  0.931423  0.357806
			 0.230311  0.963239 -0.138303
			 0.162593  0.982668  0.089036
			-0.665493  0.611711  0.427700
			-0.761716  0.052875  0.645750
			-0.996048 -0.088632  0.005759
			-0.995236 -0.093238 -0.028479
			-0.996316 -0.079396  0.032424
			-0.997504 -0.068556  0.016914
			 0.039648 -0.145673 -0.988538
			 0.028459 -0.107321 -0.993817
			 0.048507  0.087334 -0.994997
			 0.081309  0.417984 -0.904809
			 0.109869  0.584138 -0.804184
			 0.117531  0.717472 -0.686600
			 0.152592  0.898317 -0.411997
			 0.022948 -0.238418 -0.970892
			 0.019900 -0.099023 -0.994886
			 0.008264 -0.236195 -0.971670
			-0.051633 -0.958402 -0.280714
			 0.027243 -0.778494 -0.627060
			 0.027236 -0.242869 -0.969677
			 0.074009 -0.303648 -0.949905
			 0.012171 -0.535713 -0.844313
			 0.044927 -0.361511 -0.931285
			 0.065028  0.076403 -0.994954
			 0.014745  0.175045 -0.984450
			-0.006580  0.037395 -0.999279
			-0.069357 -0.995054 -0.071118
			-0.145971 -0.958119  0.246373
			-0.182058 -0.866004  0.465717
			-0.188901 -0.762357  0.618973
			-0.050577 -0.229496  0.971995
			-0.122013 -0.104927  0.986967
			-0.044227  0.071762  0.996441
			-0.203444 -0.636025  0.744368
			-0.178193 -0.163074  0.970389
			-0.234849 -0.356235  0.904402
			-0.027945  0.076668  0.996665
			-0.054038  0.349349  0.935433
			-0.191693  0.441717  0.876436
			-0.098574  0.940792  0.324336
			-0.191621  0.869291  0.455647
			-0.303160  0.572751  0.761611
			-0.303423  0.725439  0.617797
			 0.009491  0.997076  0.075823
			 0.171492  0.964586 -0.200412
			 0.129633  0.980247 -0.149372
			 0.073082  0.230822 -0.970247
			 0.052543  0.450790 -0.891083
			 0.118226  0.900678 -0.418094
			 0.056504  0.744368 -0.665374
			-0.001074 -0.900934 -0.433955
			 0.020576 -0.745707 -0.665956
			 0.023010  0.094982 -0.995213
			 0.074366 -0.098943 -0.992310
			 0.063887 -0.153838 -0.986028
			-0.108320 -0.624560 -0.773428
			 0.027977 -0.295947 -0.954795
			 0.037524 -0.208367 -0.977331
			-0.024232 -0.378463 -0.925299
			 0.013114  0.388849 -0.921208
			-0.091770 -0.995772  0.003954
			-0.025954 -0.969105 -0.245278
			-0.131204 -0.965405  0.225340
			-0.228918 -0.784342  0.576545
			-0.110549  0.209089  0.971628
			-0.235152 -0.548961  0.802088
			-0.246633 -0.334831  0.909429
			-0.267948 -0.065334  0.961215
			-0.261522  0.190646  0.946182
			-0.328767  0.374706  0.866895
			-0.133556  0.988930  0.064653
			-0.246823  0.891254  0.380454
			-0.352828  0.585063  0.730215
			-0.285046  0.914992  0.285551
			-0.203440  0.909008  0.363754
			-0.238898  0.803511  0.545250
			 0.054742  0.949005 -0.310472
			-0.048778  0.959760 -0.276554
			 0.015664  0.483861 -0.875004
			 0.003302  0.835226 -0.549897
			-0.023148 -0.885589 -0.463892
			-0.012926 -0.801719 -0.597561
			 0.082195  0.165947 -0.982703
			 0.084270  0.182347 -0.979616
			 0.065946  0.138968 -0.988099
			 0.070145 -0.043619 -0.996583
			-0.118438 -0.861487 -0.493773
			-0.111686 -0.146316 -0.982913
			-0.284128 -0.807720 -0.516585
			-0.294486 -0.370175 -0.881049
			 0.116664  0.156962 -0.980690
			 0.016206 -0.047626 -0.998734
			-0.036206 -0.964483 -0.261653
			-0.063721 -0.996910 -0.045944
			-0.107556 -0.993996 -0.020119
			-0.197519 -0.906866  0.372264
			-0.158053 -0.970450  0.182335
			-0.384861 -0.704381  0.596430
			-0.325240 -0.514885  0.793166
			-0.281952 -0.367432  0.886283
			-0.327124 -0.134009  0.935431
			-0.354637  0.121401  0.927089
			-0.404691  0.349876  0.844874
			-0.139198  0.989347 -0.042625
			-0.090922  0.921172 -0.378385
			-0.057290  0.959089 -0.277248
			-0.447642  0.450690  0.772331
			-0.432069  0.625668  0.649505
			-0.264390  0.785205  0.559956
			-0.066545  0.997768 -0.005551
			-0.078406  0.949516  0.303763
			-0.142280  0.943463  0.299389
			-0.013638  0.738585 -0.674023
			 0.100614  0.427420 -0.898437
			 0.063024  0.517885 -0.853126
			 0.035809  0.347056 -0.937160
			 0.091511  0.370611 -0.924269
			 0.103075  0.162574 -0.981298
			-0.079173 -0.970768 -0.226587
			-0.191937 -0.938229 -0.287902
			 0.053134  0.295081 -0.953994
			-0.161881  0.092600 -0.982456
			-0.210068 -0.956232 -0.203694
			-0.176156 -0.901953 -0.394271
			-0.281477 -0.654706 -0.701520
			-0.372056 -0.048297 -0.926953
			 0.162253  0.429743 -0.888254
			 0.215695  0.524604 -0.823569
			-0.118664 -0.975252 -0.186555
			-0.145137 -0.979562 -0.139261
			-0.082120 -0.996573 -0.009914
			-0.123575 -0.986833  0.104354
			-0.319903 -0.874544  0.364465
			-0.130547 -0.966334  0.221710
			-0.601993 -0.646756  0.468306
			-0.559612 -0.440529  0.701975
			-0.454821 -0.273803  0.847449
			-0.487852 -0.011729  0.872848
			-0.505467  0.258980  0.823063
			-0.002146  0.958728 -0.284316
			 0.007213  0.909312 -0.416053
			 0.032306  0.765165 -0.643023
			-0.557415  0.411424  0.721123
			-0.329024  0.782013  0.529338
			-0.606970  0.544872  0.578535
			-0.455294  0.763266  0.458403