<?xml version="1.0"?>
<VTKFile type="PolyData" version="0.1" byte_order="LittleEndian" compressor="vtkZLibDataCompressor">
	<PolyData>
		<Piece NumberOfPoints="34" NumberOfVerts="0" NumberOfLines="0" NumberOfStrips="0" NumberOfPolys="64">
		<PointData Normals="Normals">
		<DataArray type="Float32" Name="Normals" NumberOfComponents="3" format="ascii">
			 0.000058  0.998030  0.062731
			 0.998738 -0.049219 -0.009940
			 0.978215 -0.037004 -0.204270
			 0.920096 -0.025271 -0.390876
			 0.980881 -0.061449  0.184651
			 0.826621 -0.014474 -0.562573
			 0.701380 -0.005026 -0.712770
			 0.549188  0.002710 -0.835695
			 0.375885  0.008435 -0.926628
			 0.188134  0.011932 -0.982071
			-0.006837  0.013063 -0.999891
			-0.201546  0.011786 -0.979408
			-0.388521  0.008150 -0.921404
			-0.560557  0.002297 -0.828113
			-0.711051 -0.005550 -0.703118
			-0.834226 -0.015091 -0.551216
			-0.925335 -0.025957 -0.378260
			-0.980887 -0.037732 -0.190884
			-0.998744 -0.049962  0.003707
			-0.978219 -0.062178  0.198042
			-0.920103 -0.073910  0.384640
			-0.826631 -0.084707  0.556332
			-0.701385 -0.094155  0.706537
			-0.549183 -0.101891  0.829467
			-0.375891 -0.107616  0.920394
			-0.188151 -0.111112  0.975835
			 0.006832 -0.112244  0.993657
			 0.201549 -0.110967  0.973172
			 0.388518 -0.107331  0.915169
			 0.560551 -0.101478  0.821878
			 0.711050 -0.093630  0.696880
			 0.834221 -0.084089  0.544981
			 0.925330 -0.073223  0.372025
			-0.000057 -0.998030 -0.062732
		</DataArray>
	</PointData>
	<Points>
		<DataArray type="Float32" NumberOfComponents="3" format="ascii">
			 0.000026  0.000014  0.000048
			 0.002901 -0.001307 -0.000055
			 0.002842 -0.001272 -0.000615
			 0.002675 -0.001238 -0.001152
			 0.002850 -0.001342  0.000505
			 0.002406 -0.001207 -0.001646
			 0.002045 -0.001180 -0.002078
			 0.001607 -0.001157 -0.002432
			 0.001108 -0.001141 -0.002694
			 0.000568 -0.001131 -0.002854
			 0.000006 -0.001128 -0.002905
			-0.000554 -0.001131 -0.002846
			-0.001092 -0.001142 -0.002679
			-0.001587 -0.001159 -0.002410
			-0.002021 -0.001181 -0.002050
			-0.002375 -0.001209 -0.001613
			-0.002637 -0.001240 -0.001115
			-0.002797 -0.001274 -0.000576
			-0.002849 -0.001309 -0.000016
			-0.002790 -0.001344  0.000543
			-0.002622 -0.001378  0.001081
			-0.002353 -0.001409  0.001575
			-0.001993 -0.001436  0.002007
			-0.001555 -0.001459  0.002361
			-0.001056 -0.001475  0.002623
			-0.000515 -0.001485  0.002782
			 0.000046 -0.001488  0.002834
			 0.000606 -0.001485  0.002775
			 0.001144 -0.001474  0.002608
			 0.001640 -0.001457  0.002339
			 0.002073 -0.001435  0.001979
			 0.002427 -0.001407  0.001542
			 0.002690 -0.001376  0.001044
			 0.000026 -0.002301 -0.000098
		</DataArray>
	</Points>
			<Polys>
				<DataArray type="Int32" Name="connectivity" format="ascii">
					0 1 2 
					2 3 0 
					4 1 0 
					3 5 0 
					5 6 0 
					6 7 0 
					7 8 0 
					8 9 0 
					9 10 0 
					10 11 0 
					11 12 0 
					12 13 0 
					13 14 0 
					14 15 0 
					15 16 0 
					16 17 0 
					17 18 0 
					18 19 0 
					19 20 0 
					20 21 0 
					21 22 0 
					22 23 0 
					23 24 0 
					24 25 0 
					25 26 0 
					26 27 0 
					27 28 0 
					28 29 0 
					29 30 0 
					30 31 0 
					31 32 0 
					32 4 0 
					2 1 33 
					33 1 4 
					3 2 33 
					5 3 33 
					4 32 33 
					6 5 33 
					7 6 33 
					8 7 33 
					9 8 33 
					10 9 33 
					11 10 33 
					12 11 33 
					13 12 33 
					14 13 33 
					15 14 33 
					16 15 33 
					17 16 33 
					18 17 33 
					19 18 33 
					20 19 33 
					21 20 33 
					22 21 33 
					23 22 33 
					24 23 33 
					25 24 33 
					26 25 33 
					27 26 33 
					28 27 33 
					29 28 33 
					30 29 33 
					31 30 33 
					32 31 33 
				</DataArray>
				<DataArray type="Int32" Name="offsets" format="ascii">
					3 6 9 12 15 18 21 24 27 30 33 36 39 42 45 48 51 54 57 60 63 66 69 72 75 78 81 84 87 90 93 96 99 102 105 108 111 114 117 120 123 126 129 132 135 138 141 144 147 150 153 156 159 162 165 168 171 174 177 180 183 186 189 192 
				</DataArray>
			</Polys>
		</Piece>
	</PolyData>
</VTKFile>
