<?xml version="1.0"?>
<VTKFile type="PolyData" version="0.1" byte_order="LittleEndian" compressor="vtkZLibDataCompressor">
	<PolyData>
		<Piece NumberOfPoints="4985" NumberOfVerts="0" NumberOfLines="0" NumberOfStrips="0" NumberOfPolys="10074">
		<PointData Normals="Normals">
		<DataArray type="Float32" Name="Normals" NumberOfComponents="3" format="ascii">
			 0.698807  0.395631  0.595940
			 0.597527  0.434213  0.674108
			 0.674712  0.402928  0.618396
			 0.648784  0.481817  0.589009
			 0.595568  0.465761  0.654496
			 0.632417  0.189814  0.751012
			 0.617325  0.361536  0.698715
			 0.671193  0.338711  0.659375
			 0.690033  0.051669  0.721931
			 0.786772  0.107323  0.607842
			 0.585847  0.265098  0.765837
			 0.538133  0.386622  0.748957
			 0.651300  0.406126  0.640991
			 0.615572  0.297839  0.729633
			 0.582719  0.442622  0.681560
			 0.578855  0.355743  0.733739
			 0.482556  0.358089  0.799319
			 0.683419 -0.045347  0.728617
			 0.539211  0.005448  0.842153
			 0.448883  0.158274  0.879462
			 0.512383  0.034853  0.858050
			 0.359690 -0.205017  0.910270
			 0.688538 -0.086674  0.720002
			 0.455522  0.186114  0.870552
			 0.826309 -0.055926  0.560434
			 0.011744 -0.184792  0.982707
			 0.521669  0.173306  0.835360
			 0.512128  0.108368  0.852046
			 0.464285  0.294346  0.835344
			 0.418540  0.429131  0.800419
			 0.649699  0.343670  0.678073
			 0.552111  0.304656  0.776117
			 0.624993  0.383856  0.679735
			 0.519312  0.385281  0.762807
			 0.583471  0.544039  0.602978
			 0.635933  0.185409  0.749141
			 0.451063 -0.252988  0.855885
			 0.337154  0.315152  0.887134
			 0.775666  0.008573  0.631086
			 0.720124 -0.159004  0.675381
			 0.582258 -0.149826  0.799080
			 0.442442 -0.042817  0.895775
			 0.188172 -0.217073  0.957847
			 0.264897 -0.382217  0.885291
			-0.037464 -0.053711  0.997853
			-0.075667 -0.235070  0.969029
			 0.804106 -0.006330  0.594452
			 0.104561 -0.104972  0.988963
			 0.655902 -0.141582  0.741449
			-0.232919 -0.535669  0.811670
			-0.667222 -0.330010  0.667764
			 0.565319  0.219634  0.795094
			 0.492244  0.042123  0.869437
			 0.487737  0.194200  0.851117
			 0.504599  0.009272  0.863304
			 0.522845  0.281523  0.804598
			 0.465329  0.028988  0.884663
			 0.421770  0.118038  0.898987
			 0.347697  0.408477  0.843951
			 0.371756  0.272716  0.887369
			 0.313128  0.512300  0.799687
			 0.329969  0.503203  0.798691
			 0.820963  0.188610  0.538930
			 0.629094  0.278960  0.725550
			 0.615549  0.209276  0.759805
			 0.635079  0.489205  0.597791
			 0.751100  0.258691  0.607395
			 0.819662  0.262486  0.509171
			 0.651965  0.194124  0.732978
			 0.439423  0.217244  0.871615
			 0.268105  0.674759  0.687619
			 0.460042  0.554461  0.693494
			 0.403371  0.780821  0.477086
			 0.661244  0.582349  0.472891
			 0.776349  0.328099  0.538176
			 0.579206 -0.330222  0.745301
			 0.779804 -0.080665  0.620805
			 0.328507 -0.751492  0.572138
			-0.025477 -0.714081  0.699599
			 0.325032 -0.134588  0.936077
			 0.212238  0.451500  0.866662
			 0.212699  0.075108  0.974227
			 0.798022  0.219430  0.561258
			 0.889961 -0.064325  0.451478
			 0.752070 -0.525939  0.397215
			 0.561058 -0.306206  0.769059
			-0.700600 -0.088196  0.708083
			-0.523641  0.049061  0.850525
			-0.275936 -0.123363  0.953226
			 0.607707  0.144379  0.780927
			 0.144084 -0.168202  0.975166
			-0.489561  0.137585  0.861046
			 0.365945 -0.047647  0.929416
			-0.488864 -0.827485  0.276188
			-0.709690 -0.529269  0.464989
			-0.941518 -0.158619  0.297293
			-0.934237 -0.309114  0.177902
			 0.462327  0.180435  0.868157
			 0.458522  0.551337  0.696983
			 0.395333  0.525758  0.753187
			 0.482624  0.295161  0.824593
			 0.435557  0.141627  0.888950
			 0.267252  0.776415  0.570750
			 0.523369  0.653337  0.547024
			 0.058105  0.992880 -0.103984
			 0.384126  0.147523  0.911419
			 0.410844 -0.000398  0.911705
			 0.333715  0.302425  0.892846
			 0.285520  0.510427  0.811136
			 0.263076  0.397404  0.879125
			 0.257162  0.575084  0.776625
			 0.811791  0.365867  0.455123
			 0.879700  0.121625  0.459712
			 0.793031  0.048585  0.607241
			 0.272317  0.902635  0.333307
			 0.554258  0.726151  0.406820
			 0.242421  0.849730  0.468178
			 0.631426  0.028905  0.774897
			 0.688575 -0.132148  0.713022
			 0.498980 -0.271473  0.822995
			 0.285033  0.174739  0.942456
			 0.135661  0.579724  0.803440
			 0.035262  0.749503  0.661061
			 0.284075  0.804055  0.522300
			 0.758077 -0.142496  0.636408
			 0.624513  0.306379  0.718412
			 0.577040 -0.630998  0.518523
			 0.646055 -0.488295  0.586669
			 0.339517 -0.928110  0.152775
			-0.095650 -0.995307 -0.014672
			 0.425775 -0.467113  0.774933
			 0.317734 -0.532467  0.784554
			 0.240671 -0.318063  0.917013
			 0.112182  0.053747  0.992233
			 0.174831  0.489566  0.854259
			 0.133625 -0.616050  0.776290
			 0.976983 -0.142453  0.158778
			 0.581352  0.292571  0.759232
			 0.874376  0.140416  0.464488
			 0.817904 -0.575353  0.001496
			 0.526805 -0.843484 -0.104939
			 0.543734 -0.717032  0.436141
			-0.941496 -0.037117  0.334975
			-0.919512 -0.087691  0.383155
			-0.801401  0.374363  0.466485
			 0.025662  0.083336  0.996191
			-0.527526  0.255603  0.810175
			 0.330376  0.188278  0.924880
			-0.345390  0.034225  0.937835
			-0.192130 -0.120379  0.973958
			-0.114289 -0.001669  0.993446
			-0.795501  0.179213  0.578844
			 0.091531  0.217949  0.971658
			-0.670758 -0.709619 -0.215697
			-0.849859 -0.526521 -0.022678
			-0.980995  0.128949 -0.144984
			-0.966384  0.077028  0.245291
			-0.925725 -0.228026 -0.301723
			 0.332544  0.631635  0.700322
			 0.186851  0.887490  0.421245
			 0.193200  0.907312  0.373441
			 0.312191  0.790867  0.526371
			 0.364708  0.347337  0.863912
			 0.369886  0.566728  0.736209
			 0.061566  0.996681  0.053252
			 0.147039  0.986382  0.073687
			-0.142445  0.854312 -0.499860
			 0.009696  0.930702 -0.365650
			-0.022743  0.952621 -0.303307
			-0.124309  0.855361 -0.502897
			 0.358397 -0.013550  0.933471
			 0.314499  0.224191  0.922404
			 0.363707 -0.154563  0.918601
			 0.328241 -0.069124  0.942061
			 0.232552  0.357736  0.904403
			 0.223770  0.647205  0.728734
			 0.207246  0.439800  0.873857
			 0.161320  0.374239  0.913193
			 0.522939  0.659904  0.539501
			 0.806007  0.129645  0.577534
			 0.736449 -0.147460  0.660226
			 0.216797  0.922143  0.320391
			-0.021500  0.980643  0.194619
			 0.020794  0.991350  0.129584
			 0.230406  0.869320  0.437260
			 0.797446 -0.109404  0.593389
			 0.908238 -0.123996  0.399661
			 0.711021 -0.535213  0.456066
			 0.292514 -0.701220  0.650173
			 0.247007 -0.313785  0.916802
			 0.181732 -0.042751  0.982418
			-0.025648  0.155300  0.987534
			-0.051885  0.463267  0.884699
			-0.111328  0.680050  0.724664
			 0.327118  0.419811  0.846612
			-0.031667  0.565230  0.824326
			 0.501667 -0.636829  0.585474
			 0.529357 -0.330304  0.781461
			 0.450831 -0.824663  0.341589
			 0.224778 -0.967956 -0.111964
			 0.502891 -0.845073 -0.181526
			 0.299626 -0.923493 -0.239551
			-0.349969 -0.824193 -0.445228
			 0.095395 -0.792012 -0.603007
			 0.400591 -0.890619  0.215232
			 0.227730 -0.799003  0.556537
			 0.324404 -0.910445  0.256617
			 0.015463 -0.282846  0.959041
			 0.115563  0.264798  0.957354
			 0.157076  0.607698  0.778479
			 0.107701 -0.986510  0.123283
			-0.082810 -0.971661  0.221399
			-0.108158 -0.746818  0.656175
			 0.920353 -0.374476 -0.112778
			 0.873145 -0.486677  0.027619
			 0.921706 -0.384744 -0.049287
			 0.601385  0.299394  0.740742
			 0.575401 -0.753811 -0.317305
			 0.560287 -0.742426 -0.367263
			 0.413249 -0.815688 -0.404818
			 0.415349 -0.904698 -0.094905
			 0.308848 -0.865424 -0.394530
			-0.914353 -0.258409  0.311742
			-0.799531 -0.555514  0.228375
			-0.832216  0.191800  0.520220
			-0.650344  0.225461  0.725410
			-0.385880  0.752052  0.534336
			-0.402487  0.468862  0.786240
			-0.206006  0.438059  0.875023
			-0.208787  0.083463  0.974393
			-0.034541 -0.100264  0.994361
			-0.267759  0.107485  0.957472
			-0.004360  0.515254  0.857027
			-0.132243 -0.126285  0.983140
			-0.824946 -0.454065 -0.336584
			-0.668893 -0.507423 -0.543235
			-0.916948  0.343704  0.202668
			-0.822327  0.072466 -0.564382
			-0.772868  0.367795 -0.517109
			-0.770386  0.549266 -0.323747
			-0.864617  0.496906 -0.074312
			-0.802048 -0.162729 -0.574664
			 0.154535  0.943325  0.293694
			 0.013907  0.995312  0.095708
			-0.042977  0.996940 -0.065297
			 0.029932  0.999552  0.000109
			-0.016078  0.644473  0.764458
			 0.240911  0.866733  0.436733
			-0.109928  0.965733 -0.235106
			 0.308279  0.835385  0.455078
			-0.089102  0.941595 -0.324747
			 0.057750  0.947580 -0.314256
			-0.091083  0.791736 -0.604035
			 0.025104  0.920656 -0.389568
			 0.164545  0.907354 -0.386824
			 0.140931  0.961734 -0.234962
			 0.079917  0.943637 -0.321188
			 0.441743  0.097584  0.891818
			 0.399142  0.298254  0.867024
			 0.342724  0.018850  0.939247
			 0.235067  0.264386  0.935331
			 0.291720 -0.107269  0.950470
			 0.181859  0.354624  0.917153
			 0.173048  0.732768  0.658107
			 0.123351  0.659129  0.741844
			 0.131354  0.505235  0.852926
			 0.121142  0.333052  0.935094
			 0.106949  0.427898  0.897477
			 0.121003  0.385053  0.914928
			 0.053010  0.852167  0.520578
			 0.418428  0.488492  0.765698
			 0.647805 -0.073587  0.758244
			-0.095184  0.944935  0.313112
			-0.188404  0.948237  0.255637
			-0.141197  0.956212  0.256362
			-0.025062  0.988227  0.150930
			-0.001899  0.996290  0.086039
			 0.078511  0.996293  0.035173
			 0.051986  0.996618  0.063648
			-0.019763  0.996351 -0.083033
			 0.619599 -0.033483  0.784204
			 0.794033  0.105063  0.598727
			 0.879690 -0.175349  0.442040
			 0.666525 -0.511556  0.542268
			-0.102067 -0.716984  0.689577
			 0.251305 -0.714305  0.653157
			-0.089042 -0.334551  0.938162
			-0.016546 -0.144226  0.989406
			 0.123818 -0.050504  0.991019
			-0.340709  0.289245  0.894570
			-0.181894 -0.139661  0.973350
			-0.216482  0.404189  0.888688
			 0.288112  0.049544  0.956314
			 0.008448  0.236103  0.971691
			 0.448026 -0.502274  0.739590
			 0.468119 -0.756129  0.457311
			 0.531935 -0.665626  0.523437
			 0.569233 -0.770773  0.286152
			 0.849757 -0.477335 -0.223750
			 0.632792 -0.573763 -0.519971
			 0.663001 -0.738031  0.125457
			-0.644389  0.163169  0.747087
			 0.536587 -0.720308  0.439580
			 0.545119 -0.442173 -0.712270
			-0.553644 -0.323702 -0.767265
			-0.449535  0.093648 -0.888340
			 0.218200 -0.940476 -0.260563
			 0.178447 -0.976649 -0.119638
			-0.196577 -0.358987  0.912407
			-0.007110  0.179555  0.983722
			 0.127005  0.452584  0.882631
			 0.140134  0.723648  0.675793
			-0.076585 -0.988434 -0.130893
			 0.031784 -0.939417 -0.341301
			-0.109562 -0.975666 -0.189926
			-0.083366 -0.976863 -0.196951
			-0.246104 -0.912929  0.325565
			-0.331904 -0.779420  0.531361
			 0.551328 -0.580400 -0.599310
			 0.950696 -0.074848 -0.300955
			 0.655625 -0.637955 -0.403943
			-0.062653 -0.503887  0.861494
			 0.821322 -0.545597 -0.166596
			 0.509699  0.777091  0.369239
			 0.424288 -0.730698 -0.534846
			 0.318807 -0.728891 -0.605871
			 0.200510 -0.767147 -0.609329
			 0.021270 -0.778420 -0.627383
			-0.718488  0.554647  0.419693
			-0.533191  0.522248  0.665555
			-0.368432  0.686454  0.626929
			-0.231356  0.889073  0.394998
			-0.193518  0.744265  0.639234
			-0.036583  0.158897  0.986617
			-0.135062 -0.625520  0.768429
			-0.003461 -0.097799  0.995200
			-0.154219 -0.269347  0.950615
			-0.053237  0.122608  0.991026
			-0.113955  0.193068  0.974546
			-0.109553  0.566509  0.816741
			-0.208119 -0.561776  0.800684
			 0.088761 -0.953974 -0.286453
			-0.578027 -0.135455 -0.804697
			-0.663596 -0.017664 -0.747883
			-0.779529  0.609286  0.145276
			-0.576369  0.407002 -0.708624
			-0.600338  0.170504 -0.781359
			-0.622760  0.584812 -0.519774
			-0.402509  0.668265 -0.625626
			-0.671035  0.736186 -0.087988
			-0.057451  0.988667 -0.138696
			-0.058177  0.988970 -0.136209
			-0.121411  0.969863 -0.211245
			-0.224919  0.901459 -0.369843
			 0.177953  0.900393  0.397020
			-0.250068  0.722392 -0.644682
			-0.251975  0.741524 -0.621813
			 0.032222  0.972054 -0.232534
			-0.195960  0.897529 -0.395021
			 0.130830  0.874127 -0.467744
			 0.073782  0.947351 -0.311581
			 0.177827  0.829313 -0.529734
			 0.236345  0.873662 -0.425272
			 0.236936  0.884860 -0.401105
			 0.174771  0.939988 -0.293050
			 0.152731  0.984089 -0.090789
			 0.118127  0.886174 -0.448041
			 0.192835  0.911494  0.363310
			 0.055353  0.985054 -0.163111
			 0.036916  0.983979 -0.174420
			 0.293108  0.111337  0.949575
			 0.323123  0.379523  0.866922
			 0.254088  0.279463  0.925926
			 0.152157  0.405430  0.901374
			 0.128169  0.785575  0.605347
			 0.096177  0.551402  0.828677
			 0.092635  0.489154  0.867264
			 0.062746  0.737481  0.672447
			 0.102861  0.386312  0.916615
			-0.202170  0.931126  0.303532
			-0.204143  0.892240  0.402781
			 0.022098  0.563787  0.825624
			-0.108876  0.784216  0.610861
			 0.327570  0.143566  0.933856
			-0.273720  0.895498  0.350943
			-0.123543  0.942006  0.312030
			-0.131671  0.898004  0.419823
			-0.059958  0.967358  0.246218
			-0.018686  0.993215  0.114780
			 0.063254  0.997608  0.027872
			 0.103327  0.994426  0.021003
			 0.148427  0.987882  0.045375
			 0.027150  0.999370  0.022850
			 0.417921  0.271458  0.866979
			 0.553106  0.116791  0.824884
			 0.723219 -0.257041  0.641002
			 0.829753 -0.045101  0.556305
			 0.088992 -0.426423  0.900135
			-0.614640 -0.119653  0.779680
			-0.476242 -0.396878  0.784654
			-0.287009 -0.202674  0.936242
			 0.060982 -0.175462  0.982596
			-0.030318 -0.236244  0.971221
			-0.243191 -0.597531  0.764078
			 0.105830 -0.056705  0.992766
			 0.094462 -0.168360  0.981189
			-0.428190 -0.272392  0.861659
			-0.770745  0.008859  0.637083
			-0.500915  0.394038  0.770596
			 0.103286 -0.111760  0.988353
			-0.500608  0.099901  0.859890
			-0.289225 -0.060960  0.955318
			 0.133422 -0.383405  0.913892
			 0.561657 -0.694344  0.449920
			 0.456950 -0.769226  0.446641
			 0.016087 -0.655751  0.754806
			-0.781038  0.607212  0.145857
			 0.361871 -0.818460 -0.446289
			-0.294461  0.592442  0.749870
			 0.550429 -0.359912  0.753320
			 0.868779 -0.238995  0.433710
			 0.653108 -0.672072 -0.348954
			 0.718690 -0.564806 -0.405561
			 0.633583 -0.773498  0.016522
			 0.759185 -0.481867 -0.437540
			 0.623800 -0.520216 -0.583308
			 0.438246 -0.827151  0.351797
			-0.227081 -0.971633 -0.066056
			-0.631744 -0.161645 -0.758136
			-0.787411 -0.127392 -0.603122
			-0.660672  0.245057 -0.709549
			-0.497592  0.597532 -0.628775
			 0.128289 -0.279207 -0.951623
			 0.097078 -0.899565 -0.425863
			-0.103116 -0.064144  0.992599
			-0.175992 -0.486839  0.855579
			 0.120633 -0.029228  0.992267
			 0.110722  0.239387  0.964590
			 0.109839  0.691299  0.714171
			-0.202559 -0.953588 -0.222801
			-0.328097 -0.727986 -0.601988
			-0.128170 -0.962878 -0.237567
			 0.215833 -0.939660 -0.265434
			-0.138750 -0.973436 -0.182127
			-0.297762 -0.911932  0.282344
			-0.028724 -0.918999 -0.393211
			-0.002622 -0.804527 -0.593910
			 0.167471 -0.823156 -0.542557
			-0.139811 -0.939294 -0.313337
			 0.004170 -0.976896 -0.213676
			 0.511025 -0.021632 -0.859294
			 0.270706 -0.699988 -0.660859
			 0.380352 -0.790787 -0.479570
			 0.436443  0.542193 -0.718014
			 0.609772  0.785593  0.104986
			 0.516642  0.618906  0.591639
			 0.144081  0.509116  0.848552
			 0.182342 -0.659517 -0.729238
			 0.280730 -0.837417 -0.468960
			 0.090256 -0.678703 -0.728846
			 0.141032 -0.624215 -0.768417
			 0.112215 -0.525057 -0.843636
			 0.059640 -0.576159 -0.815159
			-0.071047 -0.540243 -0.838505
			-0.320042 -0.244378 -0.915343
			-0.231420 -0.652365 -0.721710
			-0.481461  0.819248  0.311494
			-0.449261  0.686141  0.572167
			-0.091874  0.825130  0.557423
			-0.239360  0.620602  0.746700
			-0.345539  0.693243  0.632469
			-0.065242  0.713784  0.697321
			 0.087199 -0.240601  0.966699
			 0.217753 -0.912019 -0.347570
			-0.164180  0.045683  0.985372
			-0.352882 -0.238290  0.904816
			-0.707695 -0.231850  0.667393
			-0.761230 -0.079343  0.643610
			 0.122148  0.353829  0.927300
			 0.316084  0.066785  0.946377
			-0.824456 -0.267060  0.498950
			-0.150035 -0.805293  0.573579
			-0.131237 -0.944301 -0.301783
			 0.059809 -0.542116 -0.838173
			-0.420063  0.192214 -0.886905
			-0.496285 -0.235675 -0.835558
			-0.317624  0.469578 -0.823779
			-0.379609  0.627085 -0.680192
			-0.482368  0.688181 -0.541967
			-0.240198  0.311055 -0.919538
			-0.199134  0.253130 -0.946716
			-0.253025  0.531076 -0.808663
			 0.150654  0.988508 -0.012425
			-0.121014  0.971747 -0.202639
			 0.056203  0.988246 -0.142169
			-0.223255  0.827970 -0.514414
			-0.312027  0.891444 -0.328582
			 0.130179  0.988675 -0.074672
			-0.352418  0.918752 -0.178034
			-0.297175  0.827688 -0.476047
			 0.034572  0.947072 -0.319155
			 0.149958  0.906894 -0.393771
			 0.062309  0.995168  0.075883
			 0.049619  0.993377 -0.103636
			 0.148037  0.988913  0.011678
			 0.211313  0.973761 -0.084480
			 0.294729  0.928965 -0.223963
			 0.166796  0.977835 -0.126557
			 0.107182  0.963086 -0.246935
			 0.113008  0.966072 -0.232236
			 0.007089  0.852046 -0.523418
			 0.163514  0.912500 -0.374977
			-0.021770  0.999604 -0.017827
			-0.208757  0.920557 -0.330145
			-0.168978  0.874404 -0.454824
			 0.339211  0.367606  0.865911
			 0.210610  0.877191  0.431486
			 0.234332  0.398597  0.886684
			 0.315104  0.610267  0.726831
			 0.198716  0.491110  0.848129
			 0.117018  0.474946  0.872200
			 0.092047  0.391278  0.915658
			 0.039549  0.878822  0.475509
			 0.018049  0.758616  0.651288
			 0.109193  0.414449  0.903498
			 0.071515  0.571349  0.817585
			 0.063291  0.628575  0.775170
			 0.161064  0.815943  0.555244
			 0.106949  0.700414  0.705679
			-0.458696  0.714495  0.528294
			-0.461711  0.571222  0.678622
			-0.305715  0.256783  0.916843
			-0.306085  0.327328  0.893962
			-0.191376  0.683215  0.704693
			-0.086110  0.894481  0.438736
			-0.121198  0.944287  0.305995
			-0.112195  0.924978  0.363082
			-0.091862  0.942545  0.321201
			-0.055776  0.763346  0.643577
			-0.055375  0.978034  0.200958
			-0.042185  0.999094 -0.005558
			-0.107791  0.991924  0.066849
			-0.074764  0.995221  0.062812
			 0.073327  0.966291 -0.246789
			 0.112557  0.987029 -0.114473
			-0.002397  0.994195 -0.107568
			 0.025438  0.454824  0.890218
			-0.348043  0.323696  0.879822
			-0.787853  0.248273  0.563603
			-0.641391  0.035694  0.766383
			-0.043526 -0.304864  0.951401
			-0.188975 -0.533770  0.824244
			-0.184609 -0.940543  0.285128
			-0.289448 -0.948922  0.125565
			-0.596000 -0.694227  0.403527
			 0.048944  0.303304  0.951636
			 0.136814  0.097652  0.985772
			 0.223531 -0.154398  0.962390
			 0.088203 -0.405849  0.909674
			-0.942164 -0.327684  0.070355
			-0.800751 -0.018644  0.598707
			-0.330451 -0.097906  0.938731
			-0.059707 -0.920836  0.385353
			 0.076827 -0.909107  0.409417
			-0.808007 -0.277363  0.519803
			-0.658096 -0.689810  0.301780
			 0.770153 -0.594815 -0.230348
			 0.606407 -0.572931  0.551381
			 0.348515 -0.735707  0.580752
			 0.757885 -0.646199 -0.089651
			 0.747147  0.418887 -0.516047
			 0.892165 -0.380258 -0.243816
			-0.643932 -0.424100 -0.636781
			-0.957856 -0.079227 -0.276107
			-0.938087  0.038306 -0.344274
			-0.800627  0.068392 -0.595248
			-0.594028  0.062913 -0.801981
			-0.455498  0.121373 -0.881924
			-0.433006  0.370426 -0.821761
			-0.430485  0.284752 -0.856504
			-0.564690  0.684950 -0.460401
			-0.610895  0.505300 -0.609491
			 0.140787 -0.648883  0.747750
			-0.082712 -0.969070  0.232513
			 0.282322 -0.586643  0.759042
			-0.219701 -0.635746  0.739972
			-0.050544 -0.698537  0.713787
			-0.103440 -0.970681 -0.216978
			-0.512114 -0.197894 -0.835809
			-0.636680  0.147685 -0.756854
			-0.847447  0.101707 -0.521047
			-0.800662 -0.496124 -0.335858
			-0.189121 -0.966763 -0.172053
			 0.345366 -0.935567 -0.073732
			 0.508933 -0.814297 -0.279119
			 0.126634 -0.991858  0.013438
			-0.081498 -0.863888 -0.497047
			 0.014707 -0.719540 -0.694295
			 0.147104 -0.823118 -0.548486
			 0.364538 -0.820184 -0.440920
			-0.007766 -0.970711 -0.240124
			-0.167132 -0.949188 -0.266663
			-0.152483 -0.940554 -0.303491
			-0.121492 -0.979313 -0.161820
			 0.277537 -0.053454 -0.959227
			 0.594285  0.476653 -0.647787
			-0.036472 -0.182990 -0.982438
			 0.467171 -0.569314 -0.676486
			 0.038833 -0.646722 -0.761736
			 0.948923  0.274441 -0.155654
			 0.180061 -0.240584  0.953781
			 0.937215 -0.086721  0.337797
			 0.019069 -0.668387 -0.743569
			 0.098339 -0.857303 -0.505332
			-0.126440 -0.642025 -0.756185
			-0.086322 -0.556246 -0.826522
			 0.026775 -0.620334 -0.783880
			-0.049743 -0.311675 -0.948886
			-0.042757 -0.242042 -0.969323
			-0.207372 -0.144340 -0.967555
			-0.415142  0.285448 -0.863815
			-0.496212 -0.043337 -0.867119
			-0.221281  0.774118  0.593107
			-0.277895  0.943394  0.181060
			 0.161361  0.654672  0.738490
			 0.492151  0.731195  0.472378
			 0.139044  0.869814  0.473382
			 0.220734  0.142429  0.964879
			-0.399159 -0.876026  0.270649
			 0.158246  0.967113  0.199125
			-0.397319  0.494000 -0.773370
			-0.973577  0.209063 -0.091875
			-0.143869  0.969503  0.198406
			-0.514639 -0.775012 -0.366746
			-0.461069  0.871149 -0.168863
			 0.292037  0.659834  0.692339
			 0.378619  0.858810  0.345098
			 0.122734  0.800402  0.586765
			 0.009896 -0.922704 -0.385382
			-0.251999  0.931193  0.263393
			 0.223626  0.210299  0.951717
			-0.102944 -0.011395  0.994622
			-0.183387 -0.203245  0.961801
			-0.465849 -0.442114  0.766498
			 0.368472 -0.083796  0.925854
			 0.279523  0.376526  0.883230
			 0.159436  0.717420  0.678151
			-0.384334 -0.768788  0.511129
			-0.799665 -0.528866 -0.284318
			-0.466280 -0.233399 -0.853293
			-0.468610 -0.213029 -0.857335
			 0.181873 -0.785741 -0.591214
			-0.402219  0.333041 -0.852821
			-0.482295  0.097272 -0.870591
			-0.502535 -0.167550 -0.848166
			-0.418509 -0.438752 -0.795202
			-0.443556 -0.561412 -0.698624
			-0.468521  0.435222 -0.768810
			-0.427785  0.413425 -0.803791
			-0.331375  0.121257 -0.935675
			-0.126049  0.004791 -0.992012
			-0.248053  0.921777 -0.297988
			-0.108509  0.990643 -0.082776
			-0.325262  0.940237 -0.100792
			-0.551222  0.678687 -0.485322
			-0.370943  0.776465 -0.509415
			-0.074378  0.878997 -0.470990
			-0.011644  0.997710 -0.066635
			 0.082963  0.992205  0.092989
			 0.085000  0.931618  0.353359
			 0.033990  0.968662  0.246047
			-0.000205  0.939409  0.342798
			 0.266873  0.960511 -0.078719
			 0.135026  0.979503  0.149474
			 0.139109  0.987567 -0.073211
			 0.112325  0.843451 -0.525332
			 0.078713  0.988847 -0.126433
			 0.174319  0.945290 -0.275754
			 0.116105  0.759749 -0.639767
			-0.077656  0.880735 -0.467199
			-0.141267  0.911364 -0.386600
			-0.122252  0.966179 -0.227053
			-0.071973  0.969997 -0.232219
			 0.056369  0.980589 -0.187796
			-0.172478  0.971287 -0.163872
			-0.216998  0.970621 -0.103956
			 0.287614  0.868593  0.403515
			 0.242743  0.727093  0.642193
			 0.166349  0.985621 -0.029664
			 0.181941  0.545623  0.818042
			 0.206430  0.547683  0.810821
			 0.198229  0.652319  0.731564
			 0.129847  0.458787  0.879008
			 0.200901  0.698107  0.687230
			 0.083884  0.413676  0.906551
			 0.077479  0.395394  0.915238
			-0.321570 -0.244134  0.914872
			-0.049759  0.910721  0.410013
			 0.012517  0.916952  0.398801
			 0.226128 -0.944269  0.239211
			-0.085975  0.763317  0.640277
			 0.052482  0.469754  0.881236
			 0.092752  0.576327  0.811939
			 0.133425  0.676400  0.724348
			 0.097521  0.922846  0.372619
			 0.071499  0.788578  0.610764
			 0.030821  0.526216  0.849792
			-0.122012  0.955003  0.270338
			-0.134963  0.939170  0.315824
			-0.063653  0.753012  0.654921
			-0.003700  0.508714  0.860928
			-0.106693  0.850719  0.514679
			-0.150690  0.941487  0.301488
			-0.125946  0.924484  0.359815
			-0.101462  0.917375  0.384874
			-0.082388  0.925521  0.369627
			-0.135971  0.978350  0.156021
			 0.099834  0.452761  0.886025
			 0.013816  0.948507 -0.316455
			-0.021410  0.962624 -0.269992
			-0.074137  0.975845 -0.205502
			-0.056128  0.992328  0.110162
			-0.137719  0.984940 -0.104528
			-0.146958  0.986640 -0.070326
			-0.148532  0.988120 -0.039456
			 0.269236  0.795683 -0.542586
			 0.126300  0.843246 -0.522479
			 0.065924  0.906513 -0.417000
			-0.020487  0.970313 -0.240983
			-0.145685 -0.466794  0.872284
			-0.186100 -0.866412  0.463354
			-0.192855 -0.947712 -0.254260
			-0.216070 -0.969898 -0.112300
			-0.389836 -0.902080 -0.185149
			-0.679311 -0.732472 -0.044957
			 0.161021  0.171473  0.971941
			 0.234564 -0.421889  0.875779
			 0.174821 -0.570899  0.802192
			-0.051852 -0.560165  0.826757
			-0.782309 -0.453060 -0.427469
			-0.910098 -0.069615 -0.408505
			-0.955472 -0.224849 -0.191089
			-0.921878 -0.371564  0.109917
			-0.472292 -0.821716  0.318942
			-0.366625 -0.780661  0.506117
			-0.199770 -0.740332  0.641872
			-0.894236 -0.440067  0.081744
			 0.884618 -0.413040  0.216445
			 0.480570 -0.460449  0.746351
			 0.733020 -0.190709  0.652925
			 0.233197 -0.458637  0.857480
			-0.055674 -0.591689  0.804241
			 0.947391 -0.210815  0.240849
			 0.923341  0.031063  0.382723
			-0.108046  0.774300 -0.623527
			-0.494444  0.655764 -0.570524
			 0.951917 -0.162081  0.259968
			-0.712266 -0.535439 -0.453852
			-0.923508 -0.277819 -0.264478
			-0.987871 -0.152601 -0.028704
			-0.964592 -0.025486 -0.262513
			-0.818848  0.044220 -0.572304
			-0.579272 -0.152422 -0.800757
			-0.383535 -0.077644 -0.920257
			-0.310327  0.025375 -0.950291
			-0.269170  0.092906 -0.958601
			-0.577528 -0.129954 -0.805961
			-0.267095 -0.012696 -0.963587
			-0.756899  0.236775 -0.609131
			-0.672666  0.642510 -0.367017
			-0.777064  0.546105 -0.312957
			-0.830395  0.414049 -0.372836
			 0.087243 -0.987277  0.132941
			 0.019141 -0.904438 -0.426175
			-0.091105 -0.974682 -0.204195
			 0.049748 -0.998739  0.006777
			 0.107196 -0.978712 -0.175021
			-0.207438 -0.951222 -0.228353
			-0.558894  0.257564 -0.788225
			-0.566664  0.291424 -0.770690
			-0.829362  0.393594 -0.396538
			-0.981089  0.105472 -0.162298
			-0.993652 -0.112261  0.007335
			-0.852807 -0.490860 -0.178261
			-0.566735 -0.771510 -0.289109
			 0.317302 -0.947986  0.025353
			 0.667546 -0.744464 -0.012459
			 0.614576 -0.788857 -0.000275
			-0.194319 -0.602172 -0.774357
			-0.100598 -0.783182 -0.613601
			 0.117470 -0.958209 -0.260837
			 0.023330 -0.620466 -0.783886
			 0.294182 -0.912889 -0.283002
			 0.014131 -0.857343 -0.514551
			-0.031775 -0.952058 -0.304264
			 0.259574 -0.965251 -0.030179
			 0.006062 -0.999337 -0.035912
			-0.033475 -0.996600 -0.075288
			-0.227832 -0.973468 -0.021253
			-0.216279 -0.976212 -0.015287
			 0.733007  0.271379  0.623743
			 0.615073 -0.397658  0.680848
			-0.124151 -0.724465 -0.678040
			-0.047315 -0.651089 -0.757525
			-0.325635 -0.581102 -0.745844
			-0.425592 -0.566183 -0.705910
			-0.187972 -0.356476 -0.915200
			-0.529102  0.323049 -0.784660
			 0.484716  0.500528  0.717302
			 0.774150  0.556569  0.301535
			 0.635393  0.645541  0.423736
			 0.830988  0.278122  0.481775
			 0.331005  0.270709  0.903965
			-0.253430 -0.966247 -0.046255
			-0.157981 -0.951049 -0.265607
			 0.251137  0.695663 -0.673040
			 0.608565  0.676853  0.414148
			-0.007549 -0.112825 -0.993586
			-0.463615  0.515843 -0.720394
			-0.384120  0.482537 -0.787153
			-0.282014  0.637673 -0.716827
			 0.596092  0.697146  0.398324
			 0.087088  0.881352  0.464363
			-0.182715 -0.930412 -0.317726
			-0.164958 -0.632716 -0.756610
			-0.017193 -0.975801  0.217984
			-0.070268  0.655309 -0.752086
			-0.085649 -0.891230 -0.445390
			 0.698616  0.267326  0.663681
			 0.345207 -0.295614  0.890755
			 0.172022 -0.477866  0.861425
			-0.016525 -0.624683  0.780704
			 0.259447  0.263598  0.929087
			 0.092924 -0.955499  0.279975
			 0.215361 -0.067279  0.974214
			 0.125530  0.696232  0.706756
			-0.511725  0.323845 -0.795778
			-0.219318  0.211053 -0.952552
			-0.124398 -0.985606 -0.114480
			 0.001925 -0.905552  0.424231
			-0.412790 -0.732948 -0.540733
			-0.665445 -0.303880 -0.681791
			-0.228444 -0.963330 -0.140745
			-0.295534 -0.897971 -0.326049
			 0.542616  0.802537  0.247997
			-0.566615  0.248849 -0.785507
			-0.639092 -0.015058 -0.768983
			-0.616861 -0.121302 -0.777668
			-0.458061 -0.322852 -0.828219
			-0.352887 -0.530206 -0.770943
			-0.328121 -0.447516 -0.831905
			-0.529656 -0.683968 -0.501650
			-0.183027 -0.583308 -0.791362
			-0.612034  0.187342 -0.768321
			-0.283415 -0.111758 -0.952463
			-0.354488  0.321193 -0.878165
			-0.011645  0.992379  0.122674
			-0.687937  0.635258 -0.350985
			-0.659921  0.748764 -0.062108
			-0.197280  0.979644 -0.037117
			-0.705723  0.591137 -0.390528
			-0.435053  0.894311 -0.104577
			-0.132420  0.930312  0.342030
			-0.001394  0.983751  0.179534
			 0.003616  0.970602  0.240662
			 0.032108  0.981869  0.186821
			-0.108491  0.875604  0.470689
			-0.123230  0.803431  0.582506
			 0.218333  0.975612 -0.022640
			 0.079508  0.995907 -0.042983
			 0.079123  0.996107 -0.038857