<?xml version="1.0"?>
<VTKFile type="PolyData" version="0.1" byte_order="LittleEndian" compressor="vtkZLibDataCompressor">
	<PolyData>
		<Piece NumberOfPoints="937" NumberOfVerts="0" NumberOfLines="0" NumberOfStrips="0" NumberOfPolys="1860">
		<PointData Normals="Normals">
		<DataArray type="Float32" Name="Normals" NumberOfComponents="3" format="ascii">
			-0.065716  0.886044  0.458921
			-0.057751  0.970914  0.232359
			-0.032933  0.963051  0.267299
			 0.041251  0.895347  0.443454
			-0.088053  0.857037  0.507676
			-0.004596  0.668607  0.743602
			-0.087759  0.709049  0.699677
			-0.061653  0.989411  0.131395
			-0.060140  0.976755  0.205749
			-0.035020  0.995927  0.083079
			 0.134081  0.911426  0.389006
			 0.009196  0.983748  0.179322
			 0.131736  0.630371  0.765034
			-0.132737  0.698378  0.703313
			-0.060199  0.922765  0.380632
			-0.153798  0.542311  0.825981
			-0.107763  0.609606  0.785346
			-0.031329  0.198846  0.979530
			-0.178660  0.502966  0.845639
			-0.025352  0.999513 -0.018195
			-0.048106  0.998669 -0.018585
			-0.048918  0.973643  0.222769
			-0.015152  0.999876 -0.004344
			-0.026566  0.991519 -0.127214
			 0.076772  0.989291  0.124138
			 0.182948  0.965820  0.183633
			 0.447552  0.679057  0.581876
			 0.365717  0.333551  0.868905
			 0.142273 -0.042004  0.988936
			-0.158422  0.797066  0.582742
			-0.087566  0.457170  0.885058
			-0.102819  0.328657  0.938836
			-0.147754  0.167526  0.974733
			-0.276618  0.161476  0.947316
			-0.172735  0.097526  0.980128
			-0.200338  0.393391  0.897278
			-0.086346 -0.117659  0.989293
			-0.220960  0.098810  0.970264
			 0.047153  0.994024 -0.098457
			-0.049885  0.987138 -0.151889
			-0.029323  0.962388 -0.270091
			 0.003294  0.972417 -0.233225
			-0.030099  0.967085 -0.252668
			-0.155852  0.976880  0.146339
			-0.042010  0.998803  0.025055
			-0.021465  0.972258 -0.232924
			-0.013397  0.925041 -0.379631
			 0.146541  0.985878  0.081056
			 0.125799  0.991034 -0.045019
			 0.366255  0.929846 -0.035266
			 0.463549  0.874217  0.144450
			 0.450197 -0.023996  0.892607
			 0.630868  0.262256  0.730224
			 0.224228 -0.275977  0.934643
			-0.009298 -0.257493  0.966235
			-0.181885  0.808056  0.560323
			-0.093870  0.435113  0.895469
			 0.133795  0.178358  0.974827
			 0.039102  0.104765  0.993728
			-0.099977  0.316992  0.943144
			-0.143990  0.232470  0.961886
			 0.041864 -0.039540  0.998341
			-0.076678 -0.090275  0.992961
			-0.217496 -0.191105  0.957170
			-0.329743 -0.036541  0.943363
			-0.324025 -0.140610  0.935541
			-0.188462 -0.178733  0.965679
			 0.198609  0.977542 -0.070472
			 0.029420  0.952251 -0.303896
			 0.082669  0.963644 -0.254080
			-0.024638  0.930488 -0.365494
			 0.005622  0.857116 -0.515093
			 0.014089  0.875358 -0.483270
			 0.001960  0.839947 -0.542665
			-0.063401  0.992204 -0.107291
			-0.100013  0.994860  0.015864
			-0.124683  0.985663  0.113679
			-0.140356  0.882231  0.449410
			-0.015073  0.921865 -0.387217
			 0.004632  0.869956 -0.493107
			-0.021614  0.857819 -0.513497
			 0.017851  0.757470 -0.652627
			 0.276776  0.960819 -0.014906
			 0.254225  0.964323 -0.073835
			 0.147826  0.849211 -0.506939
			 0.521825  0.842257 -0.135285
			 0.608133  0.754660  0.246298
			 0.712301  0.449076  0.539404
			 0.320724 -0.380884  0.867216
			 0.437164 -0.279259  0.854928
			 0.548869 -0.167735  0.818906
			 0.160806 -0.355435  0.920765
			-0.131040 -0.286374  0.949115
			 0.027562 -0.372801  0.927502
			-0.074260  0.102781  0.991928
			 0.065846  0.420387  0.904953
			-0.038486  0.721385  0.691464
			 0.214814 -0.000588  0.976655
			-0.115486  0.110420  0.987153
			 0.200824  0.318209  0.926506
			-0.038674  0.004780  0.999240
			-0.160555 -0.285138  0.944944
			-0.209430 -0.361604  0.908505
			-0.342019 -0.240547  0.908383
			-0.280281 -0.344228  0.896074
			-0.254863 -0.460965  0.850033
			-0.235707 -0.290172  0.927493
			-0.279107 -0.392566  0.876351
			 0.399034  0.910659 -0.107106
			 0.188341  0.952715 -0.238457
			 0.278945  0.957625 -0.071721
			 0.049169  0.911398 -0.408578
			 0.132366  0.921136 -0.366043
			-0.001426  0.828023 -0.560692
			 0.051802  0.683940 -0.727697
			 0.044230  0.733415 -0.678340
			 0.052674  0.808169 -0.586590
			 0.071956  0.659561 -0.748199
			 0.046505  0.640535 -0.766520
			 0.048128  0.712966 -0.699544
			-0.041698  0.882017 -0.469369
			-0.050209  0.973664 -0.222390
			 0.014280  0.999095  0.040070
			-0.054450  0.990567  0.125748
			-0.042329  0.942796  0.330674
			 0.020415  0.732883 -0.680048
			-0.009427  0.741151 -0.671272
			 0.041334  0.616086 -0.786594
			 0.050390  0.568435 -0.821184
			 0.543422  0.345376 -0.765120
			 0.638876  0.574598 -0.511542
			 0.378278  0.770740 -0.512705
			 0.621142  0.142317 -0.770667
			 0.521578  0.814324 -0.254623
			 0.688655  0.250202  0.680554
			 0.690726  0.158173  0.705605
			 0.240262 -0.470357  0.849140
			 0.348992 -0.450313  0.821841
			 0.381476 -0.475420  0.792750
			 0.527750 -0.135416  0.838536
			 0.125894 -0.450868  0.883668
			-0.090156 -0.476886  0.874329
			 0.048913 -0.538217  0.841386
			 0.049887  0.175066  0.983292
			-0.114326  0.110396  0.987290
			 0.155014  0.415614  0.896234
			 0.212720  0.663926  0.716905
			 0.137467  0.702328  0.698454
			 0.078256  0.850333  0.520393
			-0.047135  0.117942  0.991901
			-0.078354  0.085776  0.993229
			-0.207544  0.058253  0.976490
			-0.189663 -0.186458  0.963982
			-0.245928 -0.470530  0.847420
			-0.258781 -0.534389  0.804649
			-0.274523 -0.597413  0.753482
			-0.302721 -0.463096  0.833008
			-0.255436 -0.637556  0.726825
			-0.192107 -0.495507  0.847094
			-0.211966 -0.609225  0.764144
			 0.521074  0.227847 -0.822537
			 0.495531  0.589071 -0.638313
			 0.232177  0.929594 -0.286267
			 0.442328  0.824244 -0.353508
			 0.102736  0.865282 -0.490645
			 0.169318  0.875777 -0.452047
			 0.071638  0.551823 -0.830879
			 0.108984  0.385346 -0.916314
			 0.110691  0.525670 -0.843457
			 0.075869  0.787605 -0.611493
			 0.065613  0.675338 -0.734583
			 0.088216  0.474127 -0.876026
			 0.098867  0.381746 -0.918964
			 0.093558  0.430114 -0.897914
			-0.025535  0.823731 -0.566406
			-0.038820  0.712440 -0.700658
			-0.003676  0.663114 -0.748510
			 0.023691  0.955523 -0.293964
			-0.001143  0.888671 -0.458543
			 0.045068  0.955198  0.292516
			 0.094793  0.961530 -0.257826
			 0.152021  0.981592  0.115615
			 0.142310  0.894307  0.424220
			 0.018167  0.486061 -0.873736
			 0.082860  0.505339 -0.858934
			 0.124496  0.312195 -0.941825
			 0.100232  0.388463 -0.915997
			 0.617108  0.011968 -0.786787
			 0.435939 -0.060247 -0.897957
			 0.477889  0.645771 -0.595485
			 0.730799  0.335713 -0.594332
			 0.764367 -0.038754 -0.643616
			 0.845812  0.474909  0.243031
			 0.753732  0.055100  0.654868
			 0.244553 -0.557457  0.793370
			 0.157429 -0.528655  0.834110
			 0.508239 -0.355432  0.784450
			 0.301032 -0.589115  0.749882
			 0.116712 -0.544374  0.830683
			-0.135046 -0.630701  0.764185
			-0.037923 -0.677688  0.734371
			 0.094734 -0.666515  0.739448
			 0.113558  0.276746  0.954210
			 0.087826  0.138310  0.986487
			 0.109856  0.068738  0.991568
			 0.204728  0.596537  0.776035
			 0.224596  0.843103  0.488604
			 0.058278 -0.071743  0.995719
			-0.256297 -0.081804  0.963130
			-0.095707 -0.217434  0.971372
			-0.269450 -0.114738  0.956155
			-0.265168 -0.327332  0.906940
			-0.285421 -0.610683  0.738649
			-0.282336 -0.690572  0.665880
			-0.306491 -0.749795  0.586405
			-0.271803 -0.780848  0.562494
			-0.248493 -0.726569  0.640585
			-0.176523 -0.801784  0.570949
			-0.176356 -0.745171  0.643132
			-0.135322 -0.780729  0.610041
			 0.403397  0.039559 -0.914170
			 0.473117  0.287662 -0.832713
			 0.228239  0.897841 -0.376547
			 0.405304  0.780589 -0.475826
			 0.505950  0.572292 -0.645366
			 0.158439  0.798735 -0.580448
			 0.167668  0.851100 -0.497510
			 0.198157  0.869206 -0.453006
			 0.129082  0.871215 -0.473627
			 0.135897  0.312155 -0.940261
			 0.165585 -0.012925 -0.986111
			 0.148891  0.256753 -0.954939
			 0.120242  0.204417 -0.971471
			 0.098876  0.718845 -0.688102
			 0.117077  0.599234 -0.791967
			 0.086687  0.531170 -0.842819
			 0.166673  0.165300 -0.972058
			 0.146867  0.341258 -0.928425
			 0.125643  0.091641 -0.987834
			 0.123848  0.191072 -0.973732
			 0.124202  0.171571 -0.977311
			 0.040908  0.689606 -0.723028
			-0.020456  0.625056 -0.780312
			-0.031590  0.505563 -0.862211
			 0.083659  0.865821 -0.493310
			 0.067728  0.828599 -0.555731
			 0.239067  0.942948 -0.231722
			 0.178250  0.790069 -0.586531
			 0.298814  0.954221  0.013125
			 0.299778  0.931625  0.205446
			-0.058942  0.287116 -0.956081
			 0.074389  0.252851 -0.964641
			 0.075226  0.035461 -0.996536
			 0.135706  0.157023 -0.978227
			 0.488274  0.138767 -0.861587
			 0.836330  0.486337 -0.253038
			 0.656752  0.728457 -0.195006
			 0.933438  0.355970  0.044488
			 0.999981 -0.001429  0.006019
			 0.233858 -0.566646  0.790078
			 0.405593 -0.613874  0.677239
			 0.152532 -0.509114  0.847075
			 0.533726 -0.630480  0.563588
			 0.291550 -0.100107  0.951303
			 0.263633 -0.533674  0.803549
			 0.161741 -0.602797  0.781330
			 0.044985 -0.783296  0.620020
			-0.047789 -0.812558  0.580918
			 0.145961 -0.778607  0.610300
			 0.188410 -0.681214  0.707424
			 0.069355  0.388803  0.918707
			 0.017993  0.180757  0.983363
			 0.021914  0.027206  0.999390
			 0.240546  0.833266  0.497800
			 0.157563  0.656875  0.737353
			 0.005811 -0.295638  0.955282
			-0.083317 -0.466996  0.880325
			-0.175130 -0.476758  0.861412
			-0.275945 -0.518993  0.809012
			-0.207012 -0.676075  0.707156
			-0.245567 -0.782089  0.572742
			-0.291535 -0.861187  0.416370
			-0.269719 -0.876672  0.398369
			-0.294694 -0.891280  0.344639
			-0.173126 -0.924979  0.338293
			-0.171870 -0.876511  0.449655
			-0.065807 -0.941330  0.331011
			-0.112043 -0.853669  0.508621
			-0.059909 -0.929872  0.362973
			 0.360796  0.231552 -0.903443
			 0.391486  0.495784 -0.775201
			 0.335731  0.341693 -0.877799
			 0.187593  0.842528 -0.504931
			 0.323748  0.699549 -0.637039
			 0.252575  0.826248 -0.503508
			 0.272899  0.733318 -0.622712
			 0.180932  0.712498 -0.677946
			 0.125486  0.904715 -0.407117
			 0.261168  0.883369 -0.389167
			 0.197866  0.910653 -0.362712
			 0.117706  0.897860 -0.424256
			 0.188236  0.027236 -0.981746
			 0.192515 -0.334845 -0.922397
			 0.214742 -0.183544 -0.959269
			 0.193551 -0.212917 -0.957708
			 0.165467  0.607874 -0.776601
			 0.166405  0.520113 -0.837731
			 0.174098  0.417799 -0.891703
			 0.286097  0.181198 -0.940912
			 0.335230 -0.108886 -0.935823
			 0.148331 -0.061994 -0.986993
			 0.122004 -0.056502 -0.990920
			 0.165479 -0.091013 -0.982005
			 0.159676  0.677614 -0.717874
			 0.166330  0.530964 -0.830910
			 0.029526  0.473123 -0.880501
			-0.096637  0.371175 -0.923520
			 0.378470  0.914090 -0.145602
			 0.320213  0.825975 -0.463927
			 0.264344  0.689428 -0.674397
			 0.166283  0.650407 -0.741162
			 0.174757  0.571565 -0.801732
			 0.310395  0.949959  0.035105
			-0.181073  0.222110 -0.958060
			-0.158040  0.026850 -0.987068
			 0.022209  0.137914 -0.990195
			-0.075713 -0.138816 -0.987420
			 0.085295 -0.162790 -0.982967
			 0.375694  0.329765 -0.866088
			 0.415063  0.591727 -0.691073
			 0.342031  0.766895  0.543035
			 0.400533 -0.536546  0.742760
			 0.547598 -0.582444  0.600745
			 0.636417 -0.567527  0.522385
			 0.726017 -0.534194  0.433053
			-0.843842  0.077768  0.530927
			-0.712557  0.023240  0.701230
			 0.001452  0.160643  0.987012
			 0.609430 -0.420235  0.672308
			 0.281522 -0.603162  0.746285
			 0.408119 -0.572532  0.711088
			 0.494919 -0.514911  0.699945
			 0.012237 -0.913404  0.406869
			 0.097759 -0.870067  0.483142
			 0.224637 -0.778633  0.585891
			 0.225258 -0.867540  0.443433
			 0.302980 -0.714789  0.630301
			 0.386139  0.414497  0.824068
			 0.546894  0.128832  0.827230
			 0.332316  0.069357  0.940615
			-0.016921 -0.018576  0.999684
			 0.007276 -0.185182  0.982677
			 0.184848  0.921016  0.342871
			 0.510346  0.506019  0.695335
			 0.073189 -0.457298  0.886297
			 0.044927 -0.575790  0.816362
			-0.042090 -0.602347  0.797124
			-0.115852 -0.666542  0.736410
			-0.120175 -0.820837  0.558377
			-0.197743 -0.894755  0.400390
			-0.238972 -0.957859  0.159366
			-0.245264 -0.956130  0.160192
			-0.167824 -0.980761  0.099711
			-0.069421 -0.982306  0.173944
			 0.021241 -0.989967  0.139691
			-0.021914 -0.995715  0.089835
			 0.053279 -0.994878 -0.085902
			 0.297051  0.433517 -0.850778
			 0.326537  0.577569 -0.748189
			 0.183296  0.513940 -0.838014
			 0.255119  0.400326 -0.880144
			 0.163755  0.687900 -0.707091
			 0.085854  0.790319 -0.606650
			 0.236555  0.844533 -0.480423
			 0.212948  0.658026 -0.722257
			 0.113853  0.810710 -0.574271
			 0.273687  0.612445 -0.741624
			 0.152060  0.944222 -0.292102
			 0.075395  0.944932 -0.318464
			 0.032164  0.919836 -0.390981
			 0.085579  0.833387 -0.546024
			 0.269203 -0.484454 -0.832367
			 0.168391 -0.498445 -0.850410
			 0.139720 -0.388081 -0.910973
			 0.307141 -0.313463 -0.898557
			 0.162111 -0.258594 -0.952286
			 0.268713  0.491205 -0.828560
			 0.169525  0.481828 -0.859711
			 0.224936  0.306800 -0.924812
			 0.332987  0.009270 -0.942886
			 0.449934 -0.231523 -0.862529
			 0.404126 -0.415143 -0.815070
			 0.135696 -0.226507 -0.964511
			 0.197922  0.559226 -0.805043
			 0.213311  0.485997 -0.847529
			 0.159358  0.381014 -0.910732
			-0.044213  0.293829 -0.954835
			 0.394465  0.853667 -0.340074
			 0.375626  0.675431 -0.634585
			 0.266323  0.579627 -0.770133
			 0.246796  0.479481 -0.842134
			 0.175701  0.452759 -0.874150
			 0.311617  0.912964 -0.263422
			-0.140750  0.005643 -0.990029
			-0.247614 -0.203819 -0.947178
			-0.204002 -0.198245 -0.958688
			-0.055593 -0.291278 -0.955022
			 0.093004 -0.281864 -0.954936
			 0.265131  0.523603 -0.809658
			 0.291847  0.907731 -0.301413
			 0.588120 -0.495810  0.638974
			 0.629438 -0.550971  0.547940
			 0.692542 -0.612141  0.381666
			-0.990861 -0.130121 -0.035528
			-0.990655 -0.126725 -0.050438
			-0.992735 -0.114398 -0.037297
			-0.994737 -0.101371 -0.014919
			-0.165052  0.334055  0.927990
			-0.999230 -0.038821  0.005610
			-0.593680  0.126748  0.794657
			-0.994809 -0.098713 -0.024724
			 0.461358 -0.422596  0.780104
			-0.702486  0.576980  0.416663
			-0.719828  0.080512  0.689467
			-0.640334  0.766952  0.041926
			-0.329264  0.748666 -0.575400
			-0.001570  0.928326 -0.371763
			-0.001720 -0.194473  0.980906
			 0.671096 -0.671474  0.314250
			 0.377665 -0.646425  0.662951
			 0.513249 -0.586170  0.626881
			 0.476585 -0.648292  0.593788
			 0.115771 -0.985026  0.127754
			 0.204936 -0.956099  0.209466
			 0.296382 -0.846384  0.442484
			 0.280019 -0.957398  0.070558
			 0.394990 -0.742805  0.540577
			 0.889493  0.453917  0.052540
			 0.998132 -0.061010  0.003119
			 0.342552  0.270841  0.899613
			 0.406430 -0.123268  0.905329
			 0.442157  0.866834  0.230425
			 0.086654 -0.527579  0.845075
			 0.112650 -0.653484  0.748511
			 0.044328 -0.760341  0.648010
			 0.024148 -0.885705  0.463620
			-0.082516 -0.923336  0.375023
			-0.113567 -0.979920  0.163891
			-0.155855 -0.987386 -0.027901
			-0.196047 -0.976284 -0.091847
			-0.182643 -0.976517 -0.114266
			-0.109997 -0.939472 -0.324488
			-0.043872 -0.993754 -0.102605
			 0.056716 -0.987093 -0.149771
			 0.272030 -0.918480 -0.287045
			 0.061295 -0.949899 -0.306489
			-0.233454 -0.970652 -0.057744
			-0.033449 -0.934297 -0.354923
			 0.106320 -0.929075 -0.354282
			 0.110254 -0.815062 -0.568787
			 0.222591  0.487379 -0.844343
			 0.034331  0.556902 -0.829868
			-0.003754  0.434285 -0.900767
			 0.136283  0.440863 -0.887168
			 0.034953  0.647549 -0.761222
			 0.030627  0.721053 -0.692202
			-0.086497  0.901341 -0.424384
			-0.095436  0.760286 -0.642540
			 0.019899  0.617586 -0.786252
			 0.268069  0.551669 -0.789810
			-0.218153  0.842459 -0.492617
			-0.089471  0.955808 -0.280048
			-0.207047  0.936770 -0.282124
			-0.081632  0.879001 -0.469781
			-0.006190  0.847041 -0.531492
			 0.022330  0.784713 -0.619458
			 0.330663 -0.591014 -0.735775
			 0.236649 -0.576434 -0.782126
			 0.177333 -0.561112 -0.808521
			 0.117410 -0.579700 -0.806327
			 0.099580 -0.504072 -0.857902
			 0.122082 -0.335085 -0.934245
			 0.089784 -0.452946 -0.887005
			 0.263234  0.442597 -0.857214
			 0.279694  0.406777 -0.869657
			 0.241959  0.258568 -0.935200
			 0.231536  0.078829 -0.969627
			 0.246912 -0.071337 -0.966409
			 0.379553 -0.394470 -0.836859
			 0.452056 -0.546713 -0.704805
			 0.166963  0.345349 -0.923503
			 0.125795  0.216038 -0.968248
			 0.054038  0.168575 -0.984206
			 0.403354  0.741384 -0.536336
			 0.385324  0.604674 -0.697062
			 0.355367  0.522566 -0.775009
			 0.363791  0.411170 -0.835820
			 0.273251  0.388221 -0.880124
			 0.203552  0.313622 -0.927474
			 0.347345  0.782061 -0.517429
			-0.010808 -0.070302 -0.997467
			-0.121159 -0.336539 -0.933843
			-0.192888 -0.393534 -0.898846
			-0.198644 -0.381211 -0.902895
			-0.081167 -0.518065 -0.851481
			 0.061563 -0.454434 -0.888651
			 0.154075  0.614820 -0.773471
			 0.595733 -0.624277  0.505352
			-0.987657 -0.142178 -0.065713
			-0.990964 -0.125696 -0.046798
			-0.992995 -0.111246 -0.039809
			-0.988076 -0.134615 -0.074729
			-0.993898 -0.094945 -0.056153
			-0.993251 -0.104728 -0.049851
			-0.998470 -0.041836  0.036146
			-0.993484 -0.111828 -0.021982
			-0.997783  0.043143  0.050683
			-0.999875 -0.015738  0.001803
			-0.997370  0.054587  0.047690
			-0.996145 -0.082017 -0.031104
			-0.991570  0.087174  0.095862
			-0.803406  0.198121  0.561504
			 0.442908 -0.340787  0.829275
			 0.186569  0.325934  0.926800
			 0.042545  0.052930  0.997691
			 0.750991 -0.583737  0.308649
			 0.729550 -0.673945  0.116421
			-0.813774  0.405579  0.416265
			-0.876550  0.441775  0.191037
			-0.606417  0.785421 -0.123982
			-0.477358  0.719116 -0.504977
			-0.975003  0.192665  0.110677
			-0.995847  0.048430  0.077087
			-0.288328  0.567407 -0.771308
			-0.176865  0.454398 -0.873064
			-0.174124  0.491123 -0.853510
			-0.113125  0.588456 -0.800577
			 0.017515  0.464564 -0.885366
			 0.691424 -0.636382  0.341982
			 0.690136 -0.601828  0.401890
			 0.635667 -0.597985  0.488203
			 0.594521 -0.622177  0.509354
			 0.488747 -0.732844  0.473356
			 0.209494 -0.953679 -0.215891
			 0.176326 -0.903603 -0.390398
			 0.240608 -0.934190 -0.263431
			 0.341486 -0.861484  0.375809
			 0.286435 -0.929751  0.231338
			 0.265561 -0.962770 -0.050504
			 0.247605 -0.892512 -0.376981
			 0.410882 -0.808522  0.421269
			 0.755052  0.497330 -0.427270
			 0.737944 -0.637937  0.220171
			 0.598827 -0.787824 -0.144011
			 0.511796 -0.737717  0.440270
			 0.586864 -0.735045  0.339558
			 0.620187 -0.544846  0.564368
			 0.558654 -0.762337 -0.326724
			 0.604407 -0.618661 -0.501946
			 0.730270  0.305057 -0.611266
			 0.636240  0.131217 -0.760250
			 0.757105 -0.094738 -0.646387
			 0.685555 -0.366255 -0.629183
			 0.144767 -0.782025  0.606201
			 0.146386 -0.878706  0.454365
			 0.042302 -0.972662  0.228338
			-0.009889 -0.999946  0.003132
			-0.074036 -0.991411 -0.107812
			-0.136140 -0.953922 -0.267394
			-0.123589 -0.935283 -0.331618
			 0.002626 -0.805110 -0.593119
			-0.097172 -0.846263 -0.523829
			-0.094562 -0.731063 -0.675725
			 0.223131 -0.902683 -0.367935
			 0.049606 -0.876027 -0.479704
			-0.083488 -0.739633 -0.667812
			-0.015455 -0.764032 -0.644994
			 0.125007 -0.725140 -0.677160
			 0.079471 -0.659625 -0.747382
			-0.059226  0.485663 -0.872137
			-0.112442  0.419913 -0.900572
			-0.065490  0.568721 -0.819919
			-0.029938  0.714867 -0.698619
			-0.063642  0.623681 -0.779084
			-0.323887  0.875490 -0.358627
			-0.324207  0.761768 -0.560892
			-0.224491  0.694964 -0.683102
			-0.161173  0.562812 -0.810720
			 0.118623  0.525823 -0.842282
			-0.194984  0.864039 -0.464132
			-0.268848  0.922480 -0.277040
			-0.061196  0.796537 -0.601485
			 0.355289 -0.641290 -0.680086
			 0.278160 -0.666335 -0.691827
			 0.211689 -0.647734 -0.731867
			 0.152977 -0.607716 -0.779281
			 0.031912 -0.568594 -0.821999
			 0.207800 -0.509319 -0.835113
			-0.067253 -0.539320 -0.839411
			 0.108903  0.374706 -0.920726
			-0.001514  0.468911 -0.883244
			 0.227608  0.254480 -0.939912
			 0.251357  0.012335 -0.967816
			 0.243499 -0.064487 -0.967755
			 0.258750 -0.286892 -0.922356
			 0.273443 -0.536164 -0.798597
			 0.401912 -0.604426 -0.687849
			 0.404214 -0.670931 -0.621661
			 0.097339  0.212581 -0.972283
			 0.093680  0.154563 -0.983532
			 0.338462  0.616604 -0.710804
			 0.387298  0.492011 -0.779695
			 0.336054  0.401519 -0.851968
			 0.376418  0.259462 -0.889375
			 0.319740  0.129741 -0.938581
			 0.111826  0.035611 -0.993089
			-0.011970 -0.124583 -0.992137
			-0.093395 -0.342252 -0.934955
			-0.150258 -0.531509 -0.833619
			-0.162572 -0.555042 -0.815781
			-0.141818 -0.556233 -0.818836
			-0.986174 -0.151819 -0.066422
			-0.981746 -0.169775 -0.085733
			-0.994521 -0.083019 -0.063525
			-0.998165 -0.053479 -0.028417
			-0.999430 -0.031863 -0.011152
			-0.997340 -0.066385 -0.030097
			-0.994872 -0.095708  0.032710
			-0.986796 -0.158429 -0.033681
			-0.981503  0.164209  0.098420
			-0.996259  0.061904  0.060306
			-0.999915 -0.004695  0.012194
			-0.981027  0.143645  0.130197
			-0.986997  0.131986  0.091747
			-0.952366  0.207648  0.223340
			-0.942659  0.167051  0.288942
			-0.504085  0.022534  0.863360
			 0.376590 -0.888512  0.262157
			 0.567927 -0.591846  0.571994
			 0.825945 -0.488548  0.281311
			 0.569645 -0.821746  0.015439
			 0.621297 -0.687510  0.375924
			 0.788261 -0.032292  0.614493
			 0.794548 -0.423905  0.434738
			 0.800718 -0.428797  0.418310
			-0.986143  0.051931  0.157557
			-0.875584  0.483063 -0.001447
			-0.194318  0.813700 -0.547844
			-0.090278  0.680368 -0.727289
			-0.161234  0.437302 -0.884743
			-0.035210  0.662663 -0.748090
			 0.751909 -0.416035  0.511417
			 0.545165 -0.799136  0.253333
			 0.621316 -0.774413  0.119378
			 0.782109 -0.498594  0.373779
			 0.477446 -0.787935  0.388849
			 0.219752 -0.779085 -0.587142
			 0.303885 -0.936530  0.174831
			 0.398431 -0.871468  0.286001
			 0.258212 -0.904481 -0.339473
			 0.309278 -0.942668 -0.125399
			 0.309282 -0.946908  0.087808
			 0.264124 -0.773479 -0.576167
			 0.160544 -0.953955  0.253368
			 0.120300 -0.991281 -0.053760
			 0.137339 -0.945455 -0.295386
			 0.249776 -0.849434 -0.464837
			 0.276984 -0.740391 -0.612454
			 0.365240 -0.551942 -0.749640
			 0.352510  0.237502 -0.905168
			 0.384850  0.088554 -0.918721
			 0.402748 -0.152312 -0.902549
			 0.394405 -0.284845 -0.873675
			 0.026062 -0.987030 -0.158404
			-0.027232 -0.953599 -0.299847
			-0.158069 -0.923416 -0.349739
			-0.192354 -0.878173 -0.437963
			-0.106691 -0.887964 -0.447366
			-0.109027 -0.809646 -0.576702
			-0.162679 -0.692104 -0.703227
			-0.006435 -0.868662 -0.495364
			-0.085346  0.706741 -0.702305
			-0.063417  0.740332 -0.669244
			-0.299939  0.834693 -0.461870
			-0.273640  0.884329 -0.378263
			-0.278677  0.898651 -0.338772
			-0.241408  0.759489 -0.604068
			-0.297255  0.655214 -0.694503
			-0.323150  0.622004 -0.713222
			-0.261112  0.469154 -0.843632
			-0.125277  0.771851 -0.623340
			-0.139552  0.873060 -0.467216
			 0.304140 -0.733109 -0.608318
			-0.134854  0.335494 -0.932340
			 0.002377  0.228879 -0.973452
			 0.117174  0.111467 -0.986836
			 0.126037 -0.068832 -0.989635
			 0.188235 -0.062647 -0.980124
			 0.172407 -0.216712 -0.960891
			 0.202487 -0.368621 -0.907258
			 0.180436 -0.589427 -0.787412
			 0.284780 -0.692727 -0.662593
			 0.403830 -0.024169 -0.914515
			 0.252809 -0.243826 -0.936289
			-0.045034 -0.373175 -0.926667
			-0.151396 -0.465779 -0.871854
			-0.978992 -0.196376 -0.054881
			-0.990028 -0.107501 -0.091034
			-0.953347 -0.301217 -0.019966
			-0.974670 -0.205111 -0.089153
			-0.999216  0.006679 -0.039020
			-0.999659  0.021492  0.014842
			-0.996866  0.052638  0.059055
			-0.971715 -0.236138  0.003158
			-0.957415 -0.242746  0.156306
			-0.964826  0.222356  0.140244
			-0.928197  0.319373  0.190923
			-0.981651  0.137611  0.132000
			-0.938525  0.265785  0.220292
			-0.958392  0.213513  0.189466
			-0.890315  0.335968  0.307351
			-0.907681  0.215000  0.360403
			-0.934489  0.122701  0.334177
			-0.669057 -0.098303  0.736681
			 0.436131 -0.509286  0.741901
			 0.034664 -0.982221  0.184498
			 0.542227 -0.803231  0.246596
			 0.728086 -0.683429  0.053054
			 0.406947 -0.640329  0.651439
			 0.847671 -0.519852  0.105869
			 0.738883 -0.220517  0.636730
			 0.887745 -0.425575  0.175483
			-0.562093  0.443931 -0.697837
			 0.556522 -0.826616  0.083607
			 0.428233 -0.897124  0.108554
			 0.585909 -0.809393  0.039926
			 0.607276 -0.793503  0.039623
			 0.468508 -0.844053  0.260911
			 0.593634 -0.781799  0.190759
			 0.262725 -0.816794 -0.513637
			 0.286446 -0.877786 -0.383979
			 0.400321 -0.873207 -0.277942
			 0.421572 -0.903725 -0.074559
			 0.184442 -0.905656 -0.381797
			 0.087426 -0.900732 -0.425486
			 0.218886 -0.836166 -0.502908
			 0.295704 -0.748431 -0.593641
			 0.437931 -0.368036 -0.820223
			 0.313906 -0.660336 -0.682217
			 0.447931 -0.130887 -0.884436
			-0.147674 -0.836121 -0.528293
			-0.213160 -0.791419 -0.572903
			-0.190571 -0.644944 -0.740088
			-0.559702  0.493877 -0.665446
			-0.962993  0.001726 -0.269519
			-0.573092  0.741030 -0.349914
			-0.752450  0.478013 -0.453125
			-0.171353  0.853321 -0.492424
			-0.179653  0.666766 -0.723289
			-0.507454  0.779306 -0.367658
			-0.244817  0.558983 -0.792213
			-0.277414  0.469238 -0.838366
			-0.208508  0.403714 -0.890808
			-0.063978  0.842352 -0.535116
			 0.294783 -0.799605 -0.523197
			 0.360770 -0.717871 -0.595405
			-0.056797  0.143071 -0.988081
			-0.114770  0.298922 -0.947351
			 0.018151 -0.023769 -0.999553
			 0.112364 -0.229614 -0.966774
			 0.161183 -0.275299 -0.947750
			 0.151760 -0.428374 -0.890767
			 0.227354 -0.606447 -0.761927
			 0.317147 -0.648304 -0.692184
			 0.438205 -0.190498 -0.878457
			 0.299912 -0.520985 -0.799141
			 0.041919 -0.635763 -0.770745
			-0.994831 -0.070115 -0.073456
			-0.914042 -0.384052 -0.130506
			-0.789945 -0.542453  0.285888
			-0.920985 -0.383668  0.067716
			-0.986981 -0.028225 -0.158340
			-0.988130  0.141387  0.060075
			-0.997773  0.062006 -0.024581
			-0.983774  0.142255  0.109323
			-0.934478  0.298089  0.194662
			-0.866326  0.408514  0.287394
			-0.895581  0.367510  0.250742
			-0.947771  0.246967  0.201834
			-0.884315  0.375888  0.276940
			-0.920184  0.300179  0.251306
			-0.885822  0.274434  0.374173
			-0.869312  0.318131  0.378271
			-0.850744  0.404161  0.335989
			-0.893901  0.012456  0.448091
			-0.879342  0.191019  0.436198
			-0.506064 -0.443201  0.739914
			 0.704658 -0.702523  0.099589
			 0.322456 -0.808150  0.492865
			 0.182145 -0.982592 -0.036563
			 0.538697 -0.836059  0.103981
			-0.007236 -0.988949 -0.148083
			 0.773884 -0.586761  0.238360
			 0.380958 -0.889745 -0.251447
			 0.201134 -0.874642 -0.441073
			 0.622640 -0.781157 -0.045966
			 0.521306 -0.846642 -0.106946
			 0.668115 -0.703575  0.242082
			 0.398002 -0.784895  0.474904
			 0.485270 -0.666442  0.566010
			 0.470729 -0.872061  0.133879
			 0.366387 -0.797369 -0.479546
			 0.468504 -0.807885 -0.357527
			 0.527788 -0.830212 -0.179411
			 0.118582 -0.807794 -0.577414
			-0.521062  0.541683 -0.659601
			-0.963670  0.249933 -0.094201
			-0.899308  0.437307  0.002809
			-0.070267  0.613112 -0.786865
			-0.751168  0.596360 -0.283022
			-0.908367  0.238173  0.343720
			-0.156179  0.498910 -0.852465
			-0.053082  0.412450 -0.909432
			 0.509789 -0.629169 -0.586739
			 0.459059 -0.543945 -0.702417
			 0.454317 -0.736806 -0.500713
			-0.028880  0.250124 -0.967783
			-0.191059  0.050855 -0.980260
			 0.069356 -0.047815 -0.996445
			 0.187729 -0.148472 -0.970935
			 0.263066 -0.317700 -0.910968
			 0.149355 -0.389970 -0.908634
			 0.243652 -0.489044 -0.837538
			 0.379675 -0.487317 -0.786364
			-0.959864  0.236438  0.150859
			-0.962170  0.239645  0.129614
			-0.978693  0.193508  0.068657
			-0.830638  0.444923  0.334790
			-0.841604  0.443524  0.308204
			-0.888204  0.371314  0.270589
			-0.924085  0.325538  0.200228
			-0.856842  0.416506  0.303883
			-0.887984  0.149446  0.434914
			-0.870179  0.209973  0.445757
			-0.833456  0.393568  0.387885
			-0.847411 -0.081134  0.524701
			-0.742681 -0.558403  0.369610
			-0.467598 -0.762582  0.447013
			 0.133187 -0.936571  0.324186
			 0.696644 -0.698746  0.162608
			 0.538202 -0.823416  0.179791
			 0.268433 -0.958923 -0.091708
			 0.720925 -0.672452  0.167557
			 0.798203 -0.597140  0.079344
			 0.614268 -0.759059  0.215648
			 0.313991 -0.936085  0.158604
			 0.594548 -0.752134 -0.284268
			 0.712147 -0.685211 -0.152750
			 0.749717 -0.660001  0.048202
			 0.634078 -0.684912  0.358943
			 0.597661 -0.631728  0.493681
			 0.512341 -0.670256  0.536902
			 0.524087 -0.751523 -0.400683
			-0.953137  0.270345  0.135803
			 0.006851  0.521575 -0.853178
			-0.921785 -0.080365  0.379282
			-0.741099  0.522692 -0.421385
			-0.965658  0.163425  0.201982
			-0.952167  0.240246  0.188837
			-0.690305  0.200100 -0.695298
			-0.540833  0.461822 -0.703007