<?xml version="1.0"?>
<VTKFile type="PolyData" version="0.1" byte_order="LittleEndian" compressor="vtkZLibDataCompressor">
	<PolyData>
		<Piece NumberOfPoints="858" NumberOfVerts="0" NumberOfLines="0" NumberOfStrips="0" NumberOfPolys="1702">
		<PointData Normals="Normals">
		<DataArray type="Float32" Name="Normals" NumberOfComponents="3" format="ascii">
			 0.708414  0.692201 -0.137870
			 0.650578  0.570773  0.500966
			 0.649576  0.580925  0.490487
			 0.731695  0.662000  0.162414
			 0.569210  0.509083 -0.645628
			 0.466066  0.475951 -0.745824
			 0.640233  0.622646  0.449903
			 0.668307  0.743833  0.008904
			 0.684131  0.565936 -0.460088
			 0.495341  0.551256 -0.671382
			 0.445267  0.451423  0.773276
			 0.426460  0.571780  0.700856
			 0.682341  0.540978  0.491684
			 0.509427  0.398144  0.762866
			 0.778761  0.616388  0.116607
			 0.751641  0.558914 -0.350217
			 0.396340  0.439474 -0.806087
			 0.405112  0.344553 -0.846857
			 0.542011  0.633864 -0.551762
			 0.466730  0.348616 -0.812791
			 0.414472  0.686527  0.597406
			 0.548765  0.830224 -0.097903
			 0.548876  0.392055 -0.738260
			 0.341389  0.314198  0.885852
			 0.305940  0.375578  0.874838
			 0.298749  0.492250  0.817581
			 0.803128  0.585860  0.108411
			 0.631974  0.435030  0.641371
			 0.783056  0.548521  0.293170
			 0.385299  0.268938  0.882733
			 0.550700  0.322028  0.770083
			 0.812280  0.555876 -0.176644
			 0.578702  0.329158 -0.746163
			 0.718065  0.399696 -0.569759
			 0.305369  0.371686 -0.876698
			 0.411174  0.587443 -0.697027
			 0.316693  0.231400 -0.919869
			 0.319880  0.266746 -0.909133
			 0.426322  0.315978 -0.847589
			 0.455826  0.835093  0.307965
			 0.322071  0.622714  0.713090
			 0.517642  0.742573 -0.425009
			 0.214018  0.195826  0.957000
			 0.201154  0.287901  0.936296
			 0.181069  0.412088  0.892971
			 0.837163  0.479640 -0.262877
			 0.741552  0.396498  0.541194
			 0.866063  0.497287  0.051383
			 0.267905  0.136171  0.953774
			 0.461105  0.218904  0.859920
			 0.719135  0.303391  0.625138
			 0.469448  0.252286 -0.846150
			 0.693293  0.329299 -0.641021
			 0.193494  0.277857 -0.940933
			 0.227986  0.312734 -0.922074
			 0.274888  0.527601 -0.803787
			 0.400729  0.630507 -0.664738
			-0.014978 -0.119318 -0.992743
			 0.090078 -0.040223 -0.995122
			 0.311669  0.170690 -0.934734
			 0.258369  0.089839 -0.961860
			 0.112835 -0.281398 -0.952934
			 0.125190 -0.073361 -0.989417
			 0.551177  0.833766  0.032204
			 0.354467  0.767749  0.533774
			 0.329639  0.691808  0.642448
			 0.230025  0.547093  0.804846
			 0.611503  0.735876 -0.290777
			 0.069210  0.108419  0.991693
			 0.056245  0.034812  0.997810
			 0.085104  0.233560  0.968611
			 0.121823  0.337813  0.933296
			 0.829056  0.397952 -0.392811
			 0.893344  0.278271  0.352846
			 0.917803  0.385379  0.095504
			 0.050284 -0.077619  0.995714
			 0.373440  0.056592  0.925926
			 0.613285  0.176477  0.769894
			 0.865688  0.220584  0.449362
			 0.971798  0.230235  0.051001
			 0.501426  0.217459 -0.837427
			 0.278771  0.106594 -0.954423
			 0.270769  0.140376 -0.952354
			 0.630128  0.201640 -0.749853
			 0.838241  0.264157 -0.477046
			-0.047945 -0.222872 -0.973668
			 0.099930  0.013215 -0.994907
			 0.210272  0.446108 -0.869927
			 0.152420  0.241285 -0.958410
			 0.149472  0.228267 -0.962056
			 0.448488  0.877331 -0.170729
			 0.250184  0.695511 -0.673552
			-0.469356 -0.596351 -0.651207
			-0.325900 -0.498430 -0.803341
			-0.083635 -0.190736 -0.978072
			-0.053709 -0.431968 -0.900289
			-0.206768 -0.736182 -0.644425
			-0.111835 -0.628613 -0.769636
			 0.544441  0.804417  0.237693
			 0.263769  0.633891  0.727055
			 0.280960  0.797134  0.534451
			 0.181099  0.445018  0.877019
			-0.002221  0.071696  0.997424
			-0.088519 -0.057855  0.994393
			-0.188696 -0.147313  0.970924
			-0.131493 -0.199782  0.970977
			 0.046819  0.178213  0.982877
			 0.099518  0.277251  0.955630
			 0.935965  0.319472 -0.148013
			 0.955349  0.264948 -0.130805
			-0.698599 -0.452441  0.554308
			-0.220096 -0.252555  0.942218
			 0.097467 -0.122047  0.987727
			 0.521167  0.022667  0.853154
			 0.766044  0.100859  0.634826
			 0.986856  0.143923  0.073494
			 0.902599  0.133170 -0.409367
			 0.319435  0.026607 -0.947235
			-0.094967 -0.189200 -0.977335
			 0.467662  0.064759 -0.881532
			 0.751739  0.136986 -0.645077
			-0.065578 -0.594506 -0.801413
			 0.043340 -0.354223 -0.934156
			-0.015544 -0.109431 -0.993873
			 0.058160  0.054019 -0.996845
			 0.153078  0.335059 -0.929679
			 0.191479  0.537567 -0.821193
			 0.085774  0.058557 -0.994592
			 0.118195  0.182629 -0.976051
			 0.302328  0.952316  0.041130
			 0.217471  0.585214 -0.781173
			 0.403760  0.682449 -0.609295
			-0.557863 -0.762177 -0.328443
			-0.694020 -0.654808 -0.299270
			-0.551504 -0.519878 -0.652358
			-0.475738 -0.750277 -0.459083
			-0.337237 -0.751226 -0.567389
			-0.602039 -0.467934 -0.646983
			-0.160177 -0.836940 -0.523330
			-0.290834 -0.872111 -0.393496
			-0.105937 -0.775790 -0.622035
			 0.194470  0.540436  0.818603
			 0.202229  0.675932  0.708674
			 0.167423  0.796824  0.580553
			 0.138211  0.410179  0.901472
			-0.044816 -0.025564  0.998668
			-0.151544 -0.203336  0.967310
			-0.267408 -0.283537  0.920923
			-0.432255 -0.357362  0.827918
			-0.573244 -0.480584  0.663650
			-0.621665 -0.521852  0.584126
			 0.036316  0.083537  0.995843
			 0.027961  0.089017  0.995638
			 0.079969  0.379895  0.921566
			 0.046263  0.178130  0.982919
			 0.034746  0.252495  0.966974
			-0.900992 -0.358465  0.244367
			-0.599193 -0.324673  0.731816
			-0.931921 -0.362555  0.008798
			-0.892523 -0.445574  0.069759
			-0.825344 -0.542346 -0.157060
			-0.136701 -0.154624  0.978470
			 0.183599 -0.085814  0.979248
			 0.574413  0.007417  0.818532
			 0.353202 -0.045551  0.934438
			 0.702042  0.056032  0.709928
			 0.869632  0.084726  0.486376
			 0.956066  0.070144  0.284637
			 0.994680  0.083402 -0.060459
			 0.925592  0.116848 -0.360037
			 0.789683  0.076785 -0.608691
			 0.664203  0.086391 -0.742544
			 0.105744 -0.075085 -0.991555
			-0.019434 -0.179239 -0.983614
			-0.528235 -0.375076 -0.761765
			 0.221053 -0.012616 -0.975180
			-0.020725 -0.385426 -0.922506
			-0.033239 -0.745097 -0.666127
			-0.085485 -0.856332 -0.509301
			 0.056151 -0.142619 -0.988184
			 0.166995  0.516725 -0.839707
			 0.202207  0.324221 -0.924117
			 0.170486  0.199261 -0.965002
			 0.176684  0.099285 -0.979247
			 0.019866 -0.428212 -0.903460
			 0.065275 -0.325196 -0.943391
			 0.045318 -0.203126 -0.978103
			 0.232178  0.188167 -0.954299
			 0.198377  0.980081  0.009397
			 0.128008  0.843667  0.521382
			 0.495637  0.866539  0.058777
			 0.680930  0.726464  0.092653
			 0.165793  0.951433 -0.259400
			 0.078255  0.730387 -0.678535
			-0.562808 -0.805569 -0.185219
			-0.401668 -0.878637 -0.258187
			-0.731923 -0.681052 -0.021378
			-0.643471 -0.757126 -0.112719
			-0.134006 -0.887735 -0.440419
			-0.192186 -0.937674 -0.289537
			 0.134121  0.535844  0.833596
			 0.122776  0.680814  0.722093
			 0.117800  0.737582  0.664903
			-0.169335 -0.329227  0.928943
			-0.062061 -0.090475  0.993963
			-0.335928 -0.526142  0.781234
			-0.463759 -0.628398  0.624535
			-0.651630 -0.700498  0.291000
			-0.557739 -0.815762  0.153166
			-0.087714 -0.205923  0.974629
			-0.012644 -0.003640  0.999913
			 0.082821  0.479413  0.873673
			 0.070586  0.477176  0.875968
			 0.084579  0.309540  0.947117
			-0.013303  0.119892  0.992698
			-0.015685  0.115806  0.993148
			-0.960684 -0.131264  0.244657
			-0.595274 -0.012019  0.803433
			-0.840054 -0.183731 -0.510444
			-0.789534 -0.411572 -0.455241
			-0.876996 -0.477093 -0.057092
			 0.575317 -0.071501  0.814799
			-0.279148 -0.156985  0.947329
			 0.310625 -0.105153  0.944698
			 0.856630  0.005597  0.515902
			 0.893435  0.035471  0.447790
			 0.959655  0.032763  0.279264
			 0.992750 -0.023190 -0.117937
			 0.911550 -0.011586 -0.411025
			 0.701127  0.036344 -0.712110
			 0.599531 -0.024319 -0.799982
			 0.606579 -0.030004 -0.794457
			 0.377145  0.036070 -0.925451
			-0.256386 -0.211587 -0.943132
			-0.248019 -0.199062 -0.948083
			-0.044195 -0.724007 -0.688375
			-0.085793 -0.884276 -0.459016
			-0.136162 -0.957756 -0.253306
			-0.101985 -0.934655 -0.340617
			 0.140467  0.550351 -0.823033
			 0.294448  0.427043 -0.854947
			 0.365518  0.230262 -0.901873
			 0.338686  0.099474 -0.935626
			 0.334994 -0.195779 -0.921656
			 0.163450 -0.173277 -0.971215
			-0.007205 -0.547336 -0.836882
			-0.031924 -0.571245 -0.820159
			-0.159144 -0.745685 -0.647014
			 0.106094  0.945667  0.307340
			 0.209261  0.790494  0.575612
			 0.303414  0.879388  0.366901
			 0.158719  0.987323  0.001386
			 0.268126  0.800407 -0.536151
			-0.430407 -0.894827 -0.118465
			-0.310196 -0.937796 -0.155941
			-0.225879 -0.965621 -0.128669
			 0.089101  0.596900  0.797353
			 0.132538  0.631477  0.763984
			-0.350103 -0.746195  0.566234
			-0.245670 -0.586942  0.771456
			-0.183823 -0.370220  0.910575
			-0.471293 -0.830839  0.295955
			-0.217384 -0.485277  0.846907
			-0.179749 -0.478606  0.859434
			-0.118308 -0.306040  0.944639
			-0.089503 -0.114247  0.989412
			 0.139406  0.483362  0.864250
			 0.209554  0.420907  0.882567
			 0.095460  0.132293  0.986603
			 0.194834  0.134012  0.971638
			 0.183466  0.263012  0.947188
			-0.024508 -0.212141  0.976932
			 0.111696 -0.102210  0.988472
			-0.963005  0.150997  0.223208
			-0.786891 -0.001824  0.617090
			-0.612276 -0.300275  0.731405
			-0.002711 -0.104404 -0.994531
			-0.011790 -0.154332 -0.987949
			-0.892504 -0.133348 -0.430876
			-0.719295 -0.150759 -0.678150
			-0.618965 -0.167562 -0.767336
			 0.909425 -0.150335  0.387744
			 0.967091 -0.082027  0.240844
			-0.635181 -0.199532  0.746145
			 0.189361 -0.121729  0.974333
			 0.993947 -0.109063  0.013206
			 0.972645 -0.116775 -0.200811
			 0.904373 -0.201098 -0.376390
			 0.730881 -0.048283 -0.680795
			 0.589334  0.151042 -0.793644
			 0.582695  0.258127 -0.770608
			 0.507094 -0.045219 -0.860704
			-0.183271 -0.895441 -0.405705
			-0.173660 -0.961704 -0.212054
			-0.205031 -0.978674 -0.012608
			 0.194470  0.493916 -0.847484
			 0.078820  0.448367 -0.890367
			 0.173006  0.628742 -0.758124
			 0.153785  0.541013 -0.826834
			 0.318279  0.395874 -0.861384
			 0.463705 -0.070581 -0.883174
			 0.408731  0.018846 -0.912460
			 0.326893 -0.338340 -0.882421
			 0.504199 -0.118933 -0.855359
			 0.523544 -0.350264 -0.776670
			 0.435673 -0.509330 -0.742140
			 0.360165 -0.727911 -0.583461
			 0.293291  0.839098  0.458143
			 0.233916  0.599881  0.765132
			 0.292269  0.713573  0.636704
			 0.301427  0.940810  0.154978
			 0.181957  0.968348 -0.170863
			 0.403262  0.900220 -0.164268
			 0.264665  0.938395  0.222187
			-0.336093 -0.939757  0.062439
			-0.321431 -0.824173  0.466285
			-0.287323 -0.700124  0.653660
			-0.261378 -0.638247  0.724101
			-0.132769 -0.704027  0.697652
			-0.007508 -0.581904  0.813223
			-0.005037 -0.403085  0.915149
			 0.278426  0.580868  0.764899
			 0.218994  0.299564  0.928603
			 0.250406  0.492861  0.833298
			 0.192844 -0.018980  0.981046
			 0.212179  0.157857  0.964397
			 0.238536 -0.068008  0.968749
			 0.103998 -0.316955  0.942722
			 0.254444 -0.248574  0.934596
			 0.210588 -0.184796  0.959950
			-0.944117 -0.322299  0.069044
			 0.440820  0.036449 -0.896855
			-0.911508 -0.108170 -0.396802
			-0.719699 -0.012648 -0.694171
			-0.583397  0.004180 -0.812176
			 0.850098 -0.319620  0.418540
			 0.979374 -0.178281  0.095091
			-0.973262 -0.052789  0.223548
			-0.358066 -0.399228  0.844041
			 0.406003 -0.314294  0.858126
			 0.961328 -0.264930 -0.075243
			 0.778841 -0.183922 -0.599649
			 0.700679 -0.339983 -0.627264
			 0.843232 -0.461118 -0.276279
			 0.893469 -0.445583 -0.056294
			 0.668402 -0.150526 -0.728409
			 0.509782 -0.051820 -0.858742
			 0.288588 -0.049949 -0.956150
			 0.732314  0.464925 -0.497555
			 0.093629 -0.970641 -0.221562
			-0.287042 -0.918555  0.271778
			-0.071745 -0.978784  0.191924
			-0.157334 -0.971458 -0.177527
			 0.023784  0.535171 -0.844409
			 0.141917  0.592206 -0.793191
			 0.090249  0.384402 -0.918744
			 0.140850  0.381791 -0.913453
			-0.037925  0.404541 -0.913733
			 0.132475  0.941148 -0.310950
			 0.054338  0.510056 -0.858423
			 0.201742  0.247191 -0.947733
			 0.542144 -0.156500 -0.825583
			 0.036729 -0.027399 -0.998950
			 0.297224 -0.118860 -0.947381
			 0.557309  0.127524 -0.820454
			 0.409770  0.020290 -0.911963
			 0.682330  0.104621 -0.723520
			 0.776334  0.094813 -0.623150
			 0.925130  0.058666 -0.375089
			 0.862059  0.085169 -0.499600
			 0.237860  0.816607  0.525905
			 0.245958  0.681630  0.689119
			 0.153474  0.899755  0.408517
			 0.127590  0.817892  0.561047
			-0.176270 -0.860776  0.477487
			 0.231060 -0.813680  0.533420
			 0.087984 -0.631230  0.770589
			 0.461437 -0.388000  0.797830
			 0.324622 -0.350751  0.878404
			 0.171785  0.400182  0.900192
			 0.148772  0.241666  0.958887
			 0.166400  0.611301  0.773706
			 0.136949  0.008464  0.990542
			 0.196323 -0.152597  0.968592
			 0.173057 -0.188572  0.966691
			 0.393147 -0.053205  0.917935
			-0.900322  0.075481 -0.428629
			 0.940709 -0.284706  0.184418
			 0.858951 -0.460488  0.223951
			 0.631907 -0.582468  0.511297
			-0.912811 -0.407842  0.020995
			-0.552144 -0.709770  0.437451
			 0.351150 -0.825720  0.441453
			 0.048375 -0.957430  0.284582
			 0.452374 -0.188405 -0.871700
			 0.325188 -0.399353 -0.857187
			 0.406581 -0.586640 -0.700389
			 0.655201 -0.676569 -0.336104
			 0.727366 -0.673107  0.133666
			 0.047237 -0.322535 -0.945378
			-0.631019 -0.020810  0.775488
			-0.315293 -0.028389  0.948569
			 0.418404 -0.879853 -0.225380
			 0.685136 -0.721739 -0.098397
			 0.026794 -0.799899 -0.599536
			-0.175302  0.422717 -0.889146
			 0.082396  0.557428 -0.826127
			 0.049845  0.812672 -0.580585
			 0.106128  0.992240 -0.064783
			 0.144329  0.376176 -0.915238
			 0.151451  0.323263 -0.934111
			-0.276723  0.244724 -0.929266
			 0.012275  0.170827 -0.985225
			-0.169986  0.240105 -0.955748
			-0.181371  0.242293 -0.953099
			-0.261797 -0.092481 -0.960682
			 0.019503 -0.163923 -0.986280
			 0.422475  0.050986 -0.904939
			 0.446526  0.040898 -0.893836
			 0.150845 -0.104177 -0.983053
			 0.475376  0.035339 -0.879073
			 0.623762 -0.125917 -0.771405
			 0.685008 -0.258657 -0.681073
			 0.999115 -0.037364 -0.019330
			 0.966504  0.076355 -0.245030
			 0.984793 -0.162400 -0.061721
			 0.954155  0.023005 -0.298427
			 0.753630 -0.462720 -0.466832
			 0.130444  0.760625  0.635952
			 0.197926  0.720545  0.664560
			 0.206172  0.813704  0.543488
			 0.139222  0.907709  0.395831
			 0.089097  0.679338  0.728397
			 0.152776  0.626398  0.764386
			 0.622123 -0.350044  0.700309
			 0.782085 -0.349215  0.516131
			 0.598514 -0.162743  0.784408
			 0.572521  0.000972  0.819890
			 0.063540  0.505186  0.860668
			 0.067952  0.350316  0.934163
			 0.044524  0.322197  0.945625
			 0.042319  0.164706  0.985434
			 0.041080 -0.206691  0.977544
			 0.010090 -0.058533  0.998235
			 0.232502 -0.020968  0.972370
			-0.102365 -0.265117  0.958767
			 0.031135 -0.279548  0.959627
			-0.323425 -0.626311 -0.709317
			-0.351800 -0.016038  0.935938
			 0.075629 -0.982667 -0.169249
			 0.521478 -0.851352  0.057092
			 0.295817 -0.735130 -0.609980
			 0.434414 -0.854781 -0.283961
			 0.895034 -0.281120  0.346246
			-0.340311  0.133173 -0.930835
			 0.005968  0.607710 -0.794137
			 0.015387  0.724551 -0.689049
			-0.058062  0.853216 -0.518317
			-0.118261  0.981032 -0.153591
			 0.017346  0.949029  0.314712
			-0.094608  0.977624  0.187885
			 0.010152  0.298299 -0.954419
			 0.142106  0.152897 -0.977972
			 0.064918  0.174418 -0.982529
			-0.303435  0.082624 -0.949263
			-0.389002 -0.107615 -0.914929
			 0.072259 -0.094600 -0.992889
			-0.160641 -0.008911 -0.986973
			-0.264132  0.053072 -0.963025
			-0.301680 -0.261900 -0.916732
			 0.262883 -0.242409 -0.933879
			-0.141423 -0.397560 -0.906612
			 0.350143 -0.521756 -0.777927
			 0.437790 -0.675246 -0.593619
			 0.849130 -0.500484 -0.168799
			 0.873649 -0.447804  0.190284
			 0.906601 -0.231303  0.352949
			 0.807919 -0.560546 -0.181811
			 0.754826 -0.587818 -0.291045
			 0.448276 -0.843705 -0.295315
			 0.087659  0.796786  0.597870
			 0.171634  0.528870  0.831167
			 0.091402  0.614367  0.783709
			-0.010896  0.879103  0.476507
			 0.075459  0.515031  0.853843
			 0.148174  0.409144  0.900358
			 0.648098 -0.381788  0.658943
			 0.294971 -0.124290  0.947388
			-0.075068 -0.585305  0.807331
			 0.045632  0.372236  0.927016
			 0.051703  0.346002  0.936808
			 0.028234  0.268491  0.962868
			-0.025767 -0.016579  0.999530
			-0.051013 -0.356218  0.933009
			-0.054761 -0.241707  0.968803
			-0.158359 -0.384749  0.909335
			-0.253902 -0.599890  0.758726
			-0.124546 -0.475527  0.870840
			 0.650288 -0.705042  0.282915
			 0.621339 -0.619641  0.479566
			-0.130800  0.451369 -0.882699
			-0.189771  0.724187 -0.662978
			-0.063381  0.862859 -0.501456
			-0.109981  0.921488 -0.372511
			-0.130075  0.986960 -0.094814
			-0.106633  0.888932  0.445454
			-0.221224  0.922043  0.317642
			-0.117659  0.989683  0.081761
			-0.089929  0.181683 -0.979236
			 0.011648 -0.004292 -0.999923
			 0.100389 -0.010267 -0.994895
			-0.349235 -0.140633 -0.926422
			-0.383369 -0.323318 -0.865155
			-0.310348 -0.270937 -0.911196
			 0.096677 -0.263179 -0.959891
			 0.014323 -0.243188 -0.969874
			-0.349616 -0.074910 -0.933894
			 0.017121 -0.275775 -0.961070
			-0.179862 -0.150937 -0.972043
			-0.435065 -0.397072 -0.808117
			-0.414339 -0.485156 -0.770030
			-0.016897 -0.631284 -0.775368
			-0.307229 -0.671106 -0.674705
			 0.045203 -0.790214 -0.611162
			 0.106844 -0.916351 -0.385856
			 0.480412 -0.877014 -0.007058
			 0.418026 -0.900481 -0.119948
			 0.148558 -0.979204 -0.138168
			 0.094974 -0.995367  0.014964
			-0.080551  0.743111  0.664302
			 0.098378  0.374676  0.921922
			-0.018861  0.507474  0.861460
			 0.071728  0.296509  0.952333
			 0.056547 -0.850270  0.523300
			-0.339990 -0.707796  0.619218
			-0.328286 -0.854888  0.401741
			 0.010755  0.181563  0.983321
			-0.004007 -0.277371  0.960755
			-0.008190 -0.088596  0.996034
			-0.097922 -0.487941  0.867367
			-0.043765 -0.404325  0.913568
			-0.144442 -0.731468  0.666402
			-0.265348 -0.833158  0.485220
			-0.121119 -0.626822  0.769691
			 0.002246 -0.976802  0.214132
			-0.265776  0.592461 -0.760495
			-0.316359  0.388562 -0.865411
			-0.274408  0.210734 -0.938238
			-0.312413  0.863675 -0.395556
			-0.396798  0.779980 -0.483924
			-0.123873  0.983628 -0.130888
			 0.034558  0.976886 -0.210948
			-0.164577  0.691220  0.703655
			-0.179541  0.835021  0.520101
			-0.325064  0.832918  0.447862
			-0.356292  0.912846  0.199419
			-0.123777 -0.010734 -0.992252
			 0.025222 -0.173359 -0.984536
			-0.324693 -0.189737 -0.926593
			-0.266634 -0.415091 -0.869831
			-0.312753 -0.506580 -0.803468
			-0.185845 -0.188314 -0.964365
			-0.249155 -0.427476 -0.869015
			 0.102479 -0.238293 -0.965772
			 0.032789 -0.139250 -0.989714
			-0.071265 -0.075312 -0.994610
			-0.440069 -0.620273 -0.649308
			-0.342772 -0.616387 -0.708924
			-0.461579 -0.796633 -0.390282
			-0.274019 -0.847717 -0.454191
			-0.223677 -0.931825 -0.285780
			-0.194361 -0.980891 -0.008736
			 0.063423 -0.994374  0.084846
			-0.264744 -0.943199  0.200717
			-0.123861  0.564655  0.815980
			-0.011687  0.296205  0.955053
			-0.108767  0.397197  0.911265
			 0.001862  0.266555  0.963818
			-0.369791 -0.815376  0.445441
			-0.384530 -0.873833  0.297577
			-0.035729  0.064166  0.997300
			-0.007504  0.222165  0.974980
			 0.033803 -0.236409  0.971065
			 0.076235 -0.379477  0.922055
			-0.082809 -0.159234  0.983762
			-0.036041 -0.670658  0.740891
			 0.049359 -0.537010  0.842131
			-0.074785 -0.762662  0.642460
			-0.083488 -0.922568  0.376693
			-0.243954 -0.932329  0.266924
			-0.383049  0.659716 -0.646567
			-0.393249  0.539741 -0.744336
			-0.381399  0.388846 -0.838650
			-0.217546 -0.011633 -0.975981
			-0.269754  0.213615 -0.938936
			-0.360624  0.932231 -0.029917
			-0.466942  0.855353 -0.224359
			-0.473674  0.840848 -0.261930
			-0.385406  0.881192 -0.273795
			-0.507018  0.707396 -0.492467
			-0.484372  0.690642 -0.537027
			-0.152459  0.453451  0.878145
			-0.256875  0.710786  0.654827
			-0.224534  0.548346  0.805544
			-0.338397  0.719396  0.606595
			-0.367998  0.845682  0.386523
			-0.333341  0.773630  0.538870
			-0.450586  0.890602  0.061656
			-0.313414  0.919815  0.236035
			-0.093246 -0.134404 -0.986530
			 0.091636 -0.180534 -0.979291
			-0.284987 -0.572775 -0.768577
			-0.292916 -0.765051 -0.573496
			-0.102935 -0.243943 -0.964311
			-0.181360 -0.343364 -0.921526
			-0.249352 -0.596223 -0.763113
			-0.369044 -0.748837 -0.550499
			 0.090635 -0.141186 -0.985826
			 0.023490 -0.110043 -0.993649
			-0.379440 -0.868435 -0.319134
			-0.241202 -0.876511 -0.416594
			-0.415510 -0.909492  0.013225
			-0.424679 -0.902532 -0.071296
			-0.409911 -0.897676  0.161711
			-0.324738 -0.923694  0.203309
			-0.079090  0.311765  0.946862
			-0.043470  0.214087  0.975847
			-0.131376 -0.004931  0.991320
			 0.019329 -0.299428  0.953923
			 0.036039 -0.426236  0.903894
			-0.169713 -0.339327  0.925232
			-0.231520 -0.240170  0.942718
			 0.208002 -0.713082  0.669514
			 0.056795 -0.840330  0.539092
			 0.225180 -0.576363  0.785557
			-0.150313 -0.971829  0.181532
			-0.063502 -0.990030  0.125727
			 0.101130 -0.971871  0.212695
			-0.371430  0.683963 -0.627881
			-0.210910  0.447646 -0.868982
			-0.122829  0.045490 -0.991385
			-0.165587 -0.251270 -0.953648
			-0.075678  0.303253 -0.949900
			-0.320387  0.945571 -0.056981
			-0.166561  0.899253 -0.404478
			-0.318074  0.785205 -0.531303
			-0.072816  0.309814  0.948005
			-0.156498  0.340705  0.927054
			-0.212837  0.470190  0.856517
			-0.278049  0.587871  0.759669
			-0.293990  0.681711  0.669955
			-0.255874  0.837271  0.483225
			-0.199890  0.737535  0.645047
			-0.124391  0.921462  0.368016
			-0.061336  0.990420  0.123720
			-0.049168 -0.277434 -0.959486
			-0.184019 -0.221536 -0.957632
			-0.223618 -0.946754 -0.231629
			-0.090818 -0.443825 -0.891500
			-0.285550 -0.812108 -0.508863
			-0.395713 -0.826597 -0.400185
			-0.386130 -0.865799 -0.318270
			 0.063376 -0.276904 -0.958805
			-0.233340 -0.971184 -0.048521
			-0.155388 -0.973030 -0.170490
			-0.152451 -0.980957  0.120341
			-0.133368  0.166822  0.976925
			-0.213354 -0.047543  0.975818
			-0.009487 -0.446358  0.894804
			-0.242942 -0.384354  0.890647
			-0.328651 -0.356182  0.874713
			-0.332913 -0.318714  0.887463
			-0.302936 -0.220030  0.927263
			 0.247517 -0.845780  0.472644
			 0.156096 -0.649593  0.744085
			 0.271782 -0.870957  0.409351
			-0.091112 -0.995555  0.023874
			 0.013749 -0.998410  0.054657
			 0.089059 -0.996024  0.002139
			-0.094455  0.675469 -0.731314
			-0.011736  0.468191 -0.883550
			 0.022553  0.127330 -0.991604
			-0.051116 -0.244152 -0.968389
			-0.314854 -0.489708 -0.813052
			-0.141924 -0.537836 -0.831018
			-0.247785 -0.600549 -0.760226
			 0.092453  0.379359 -0.920619
			 0.161148  0.985410 -0.054754
			 0.124001  0.734752 -0.666906
			-0.225121  0.161858  0.960793
			-0.211532  0.391433  0.895564
			-0.204394  0.577048  0.790720
			-0.104072  0.788937  0.605596
			-0.132566  0.633237  0.762520
			-0.002318  0.920127  0.391613
			 0.084173  0.936620  0.340086
			-0.068561 -0.457032 -0.886804
			-0.165217 -0.513323 -0.842142
			-0.182242 -0.746257 -0.640226
			-0.290713 -0.922065 -0.255503
			-0.071416 -0.992867 -0.095473
			-0.108892 -0.658820 -0.744378
			-0.284699 -0.868771 -0.405197
			-0.304542 -0.918948 -0.250576
			-0.393031 -0.870770 -0.295444
			-0.448424 -0.841975 -0.299991
			-0.437001 -0.839246 -0.323568
			-0.298866 -0.092315  0.949819
			-0.222127 -0.452236  0.863796
			-0.269271 -0.357567  0.894225
			-0.373711 -0.376698  0.847608
			-0.494557 -0.402290  0.770438
			-0.489245 -0.419606  0.764572
			-0.264392 -0.262153  0.928102
			-0.310733 -0.414512  0.855351
			 0.070640 -0.916936  0.392732
			-0.116434 -0.726576  0.677149
			-0.185745 -0.981978  0.034893
			 0.088679  0.547726 -0.831945
			 0.025656  0.346752 -0.937606
			 0.050332  0.007453 -0.998705
			 0.001738 -0.065284 -0.997865
			-0.028934 -0.359295 -0.932775
			-0.123892 -0.624036 -0.771511
			-0.322790 -0.760346 -0.563632
			-0.290301 -0.809034 -0.511066
			-0.183575 -0.780962 -0.596991
			 0.059265  0.333224 -0.940983
			 0.174472  0.499411 -0.848615
			 0.062136  0.864765  0.498318
			 0.211433  0.958116  0.193156
			 0.351313  0.758988 -0.548193
			-0.232668  0.132650  0.963467
			-0.154775  0.342667  0.926620
			-0.080992  0.566372  0.820160
			-0.033754  0.724502  0.688446
			-0.253461 -0.873440 -0.415765
			-0.382230 -0.894326 -0.232555
			-0.195417 -0.947412 -0.253420
			-0.299444 -0.910337 -0.285692
			-0.226974 -0.966197 -0.122258
			-0.404841 -0.892957 -0.196805
			-0.541859 -0.769794 -0.337352
			-0.556919 -0.829841  0.034727
			-0.418565 -0.823928 -0.382030
			-0.239556 -0.100505  0.965666
			-0.409562 -0.850030  0.331222
			-0.257210 -0.869610  0.421451
			-0.344494 -0.415630  0.841769
			-0.565464 -0.758645  0.323586
			-0.697606 -0.714264 -0.056327
			-0.729438 -0.591813  0.343042
			-0.367296 -0.584180  0.723760
			-0.586010 -0.609418  0.534043
			-0.193719 -0.397241  0.897035
			-0.130067 -0.355178  0.925706
			-0.174187 -0.554189  0.813961
			 0.008299  0.236679 -0.971552
			-0.317701  0.172804 -0.932312
			 0.061774 -0.156254 -0.985783
			 0.091767 -0.241598 -0.966028
			 0.002544 -0.407818 -0.913060
			-0.014067 -0.630204 -0.776302
			-0.080692 -0.685620 -0.723473
			-0.100193 -0.794801 -0.598542
			-0.165235 -0.923368 -0.346537
			-0.101221 -0.904365 -0.414582
			 0.062884  0.490560 -0.869136
			 0.175990  0.875052 -0.450901
			 0.029199  0.811534  0.583576
			-0.040286  0.632892  0.773192
			-0.009398  0.960789  0.277122
			 0.326624  0.938728 -0.110031
			-0.165802  0.001496  0.986158
			-0.110956  0.250829  0.961651
			-0.094023  0.494389  0.864141
			-0.106183 -0.974737 -0.196503
			-0.159296 -0.987118 -0.014923
			-0.360338 -0.932638  0.018526
			-0.243971 -0.963315  0.111815
			-0.401131 -0.821144  0.405976
			-0.123388 -0.201862  0.971611
			-0.173904 -0.810016  0.560028
			-0.079637 -0.586571  0.805973
			-0.076992 -0.315345  0.945849
			-0.092277 -0.694549  0.713503
			-0.324341 -0.478380 -0.816061
			-0.723625  0.152760 -0.673076
			 0.050555 -0.500972 -0.863986
			 0.042581 -0.701146 -0.711745
			-0.027710 -0.827170 -0.561268
			-0.071139 -0.950124 -0.303649
			 0.472374  0.870257 -0.139699
			 0.355277  0.933629 -0.045986
			-0.718436  0.602998 -0.346762
			 0.144998  0.879486  0.453298
			 0.023273  0.799108  0.600736
			-0.015974  0.671811  0.740550
			-0.105427  0.310234  0.944796
			-0.055347  0.477750  0.876751
			-0.096643 -0.126880  0.987199
			-0.110246  0.058800  0.992163
			-0.144882 -0.964389  0.221277
			-0.114650 -0.991187 -0.066362
			-0.100157 -0.982994  0.153922
			-0.093622 -0.988392  0.119649
			-0.252230 -0.920331  0.298950
			-0.102716 -0.823637  0.557738
			-0.084422 -0.698048  0.711057
			-0.047600 -0.407191  0.912102
			-0.049856 -0.175777  0.983167
			-0.714708 -0.446213 -0.538597
			-0.798896  0.028950 -0.600772
			 0.077111 -0.822874 -0.562967
			 0.028847 -0.915962 -0.400226
			-0.136705 -0.988392 -0.066284
			-0.048353 -0.982912 -0.177610
			 0.132264  0.905641  0.402891
			-0.057077  0.840050  0.539499
			-0.765423  0.440013  0.469591
			-0.975964  0.016666 -0.217292
			-0.975740  0.010275 -0.218690
			 0.039393  0.716168  0.696816
			 0.123594  0.746120  0.654240
			-0.035194  0.449173  0.892751
			 0.016656  0.539386  0.841894
			-0.075655  0.236929  0.968577
			-0.043179  0.018263  0.998900
			-0.081170 -0.980101  0.181146
			-0.135577 -0.961780  0.237902
			-0.128792 -0.951106  0.280731
			-0.033685 -0.476325  0.878624
			-0.039247 -0.791786  0.609537
			-0.003367 -0.173461  0.984835
			 0.091015 -0.922756 -0.374484
			-0.134767 -0.968185 -0.210844
			-0.777984 -0.608251  0.157389
			 0.079294 -0.965438 -0.248276
			 0.064291 -0.997413  0.032152
			 0.120819  0.662905  0.738891
			 0.054269  0.488876  0.870664
			-0.499462  0.249747  0.829557
			-0.978468 -0.008523  0.206223
			-0.999719 -0.018802  0.014402
			 0.066698  0.658211  0.749873
			-0.022426  0.210395  0.977359
			-0.004948  0.294576  0.955615
			 0.038155  0.312557  0.949133
			 0.051356  0.544099  0.837448
			 0.003569  0.051494  0.998667
			-0.123724 -0.959932  0.251441
			-0.119964 -0.244747  0.962137
			-0.018852 -0.625650  0.779876
			-0.234394 -0.410701  0.881127
			-0.412688 -0.617605  0.669517
			-0.457165 -0.837734  0.298666
			-0.745029 -0.263104  0.612950
			-0.599244 -0.051504  0.798908
		</DataArray>
	</PointData>
	<Points>
		<DataArray type="Float32" NumberOfComponents="3" format="ascii">
			 0.020667 -0.000918  0.000508
			 0.020322 -0.000816  0.001688
			 0.020759 -0.001304  0.001672
			 0.021364 -0.001716  0.001259
			 0.019976 -0.000758 -0.000162
			 0.020198 -0.001177 -0.000193
			 0.020125 -0.000392  0.001470
			 0.019730  0.000182  0.001134
			 0.021192 -0.001561  0.000239
			 0.020739 -0.001215  0.000005