<?xml version="1.0"?>
<VTKFile type="PolyData" version="0.1" byte_order="LittleEndian" compressor="vtkZLibDataCompressor">
	<PolyData>
		<Piece NumberOfPoints="855" NumberOfVerts="0" NumberOfLines="0" NumberOfStrips="0" NumberOfPolys="1705">
		<PointData Normals="Normals">
		<DataArray type="Float32" Name="Normals" NumberOfComponents="3" format="ascii">
			-0.144612  0.721235 -0.677427
			-0.195079  0.677337 -0.709337
			-0.281228  0.637141 -0.717609
			-0.050929  0.777276 -0.627095
			-0.110651  0.687454 -0.717749
			-0.113243  0.771895 -0.625583
			-0.108836  0.713325 -0.692331
			-0.114837  0.625956 -0.771357
			-0.290245  0.660577 -0.692384
			-0.423973  0.611607 -0.667970
			-0.483716  0.725815 -0.489092
			-0.552030  0.537433 -0.637518
			-0.120323  0.806280 -0.579167
			-0.014803  0.869235 -0.494177
			-0.063081  0.720966 -0.690093
			 0.022091  0.660041 -0.750905
			-0.004908  0.626240 -0.779614
			-0.172180  0.658973 -0.732195
			-0.081477  0.614179 -0.784949
			-0.023713  0.566219 -0.823914
			 0.111438  0.524897 -0.843840
			-0.223700  0.773146 -0.593468
			-0.552003  0.654961 -0.516061
			-0.768073  0.433846 -0.471000
			-0.851197  0.511884 -0.115926
			-0.688525  0.718136 -0.101063
			-0.841250  0.465510 -0.274953
			-0.242802  0.939280 -0.242487
			-0.732832  0.501844 -0.459467
			-0.168871  0.783127 -0.598494
			-0.146012  0.895725 -0.419950
			-0.034921  0.661235 -0.749366
			-0.034409  0.747401 -0.663481
			-0.142008  0.783332 -0.605165
			 0.049849  0.595479 -0.801823
			 0.095732  0.621649 -0.777424
			 0.160830  0.519954 -0.838917
			-0.051348  0.745613 -0.664398
			 0.093783  0.645197 -0.758238
			 0.076485  0.537641 -0.839697
			 0.278546  0.397053 -0.874506
			 0.234496  0.532916 -0.813026
			-0.078871  0.847537 -0.524843
			-0.323475  0.863704 -0.386496
			-0.497749  0.793508 -0.350131
			-0.030365  0.780639 -0.624245
			-0.779317  0.540660 -0.316784
			-0.716678  0.663412 -0.215077
			-0.621674  0.782986 -0.021327
			-0.870567  0.486652 -0.072685
			-0.841539  0.522544 -0.136964
			-0.163581  0.975834 -0.144877
			-0.180011  0.851681 -0.492175
			-0.238969  0.912067 -0.333208
			-0.228542  0.952315 -0.202149
			-0.066621  0.767486 -0.637594
			-0.095050  0.690970 -0.716607
			-0.032911  0.576980 -0.816095
			-0.006539  0.908269 -0.418335
			-0.094202  0.898616 -0.428503
			-0.194272  0.874422 -0.444572
			 0.048606  0.489952 -0.870394
			 0.144414  0.495357 -0.856602
			 0.216296  0.386062 -0.896757
			 0.016235  0.862302 -0.506135
			 0.065047  0.850022 -0.522715
			 0.100621  0.782559 -0.614391
			 0.266174  0.737999 -0.620088
			 0.220139  0.335975 -0.915784
			 0.339325  0.484785 -0.806128
			-0.333112  0.434086 -0.837022
			-0.707787 -0.383032 -0.593569
			-0.505567  0.832733 -0.225739
			-0.869470  0.463836 -0.169939
			-0.833202  0.500039 -0.236086
			-0.820880  0.543943 -0.174016
			-0.932523  0.113200 -0.342908
			-0.873540 -0.308560 -0.376456
			-0.846719  0.515972 -0.129770
			-0.253686  0.962897  0.092043
			-0.252744  0.966841 -0.036581
			-0.602610  0.783313  0.152585
			-0.847266  0.509968  0.148569
			-0.862312  0.505629  0.027534
			-0.843932  0.534478 -0.045959
			-0.155740  0.916185 -0.369256
			-0.222804  0.952386 -0.208133
			-0.285729  0.944833 -0.160151
			-0.089169  0.877147 -0.471871
			-0.102331  0.790524 -0.603821
			-0.104422  0.800009 -0.590831
			-0.119979  0.711789 -0.692070
			-0.114242  0.629383 -0.768652
			-0.089496  0.540878 -0.836326
			-0.035277  0.466119 -0.884019
			-0.069782  0.941447 -0.329862
			-0.024509  0.960760 -0.276298
			-0.113058  0.949863 -0.291509
			 0.033763  0.391855 -0.919407
			 0.127733  0.377208 -0.917278
			-0.010026  0.753121 -0.657806
			 0.122099  0.864405 -0.487746
			 0.176182  0.880005 -0.441079
			 0.310880  0.865879 -0.391927
			 0.369227  0.844134 -0.388729
			 0.388539  0.650376 -0.652724
			 0.087091  0.297902 -0.950615
			 0.168208  0.243592 -0.955180
			 0.323572  0.393287 -0.860597
			 0.411220  0.577346 -0.705387
			 0.404092 -0.752078 -0.520661
			 0.342730 -0.788343  0.510932
			 0.126774 -0.990175 -0.059006
			 0.394470 -0.839485 -0.373709
			 0.236832 -0.870345 -0.431753
			-0.870183  0.479369 -0.113961
			-0.905951  0.415845 -0.079535
			-0.923810  0.377826 -0.061823
			-0.906948  0.412185 -0.086890
			-0.952879  0.288882 -0.092572
			-0.871173 -0.439777 -0.218297
			 0.357706 -0.592778  0.721568
			 0.561933  0.027240  0.826734
			-0.241584  0.950132  0.197193
			-0.290121  0.955958  0.044427
			-0.251485  0.951413  0.177675
			-0.231851  0.969424 -0.080384
			-0.257741  0.956643  0.135657
			-0.909057  0.367903 -0.195606
			-0.891555  0.433895  0.129864
			-0.834441  0.526830  0.161736
			-0.835264  0.535354  0.125419
			-0.842711  0.533775  0.070155
			-0.884818  0.465070 -0.028404
			-0.857715  0.513746  0.019746
			-0.082015  0.956039 -0.281535
			-0.106086  0.986398 -0.125557
			-0.093876  0.932748 -0.348092
			-0.093968  0.864188 -0.494318
			-0.083220  0.878252 -0.470901
			-0.080849  0.859542 -0.504630
			-0.102803  0.782911 -0.613581
			-0.122552  0.718117 -0.685047
			-0.140728  0.636841 -0.758043
			-0.147856  0.541437 -0.827638
			-0.108676  0.433815 -0.894424
			-0.021082  0.330156 -0.943691
			-0.081764  0.950780 -0.298883
			 0.188776  0.676015 -0.712297
			 0.281415  0.909378 -0.306329
			 0.469135  0.726483 -0.502130
			 0.522290  0.820494 -0.232385
			 0.316067  0.751992 -0.578454
			 0.061003  0.183322 -0.981158
			 0.248349  0.102407 -0.963242
			 0.438594  0.297496 -0.848016
			 0.521093  0.499276 -0.692232
			 0.600819  0.668492 -0.438331
			 0.818013  0.503174 -0.278695
			 0.733856  0.494615 -0.465629
			 0.647312  0.748025 -0.146446
			 0.811740 -0.547009 -0.204596
			 0.917843  0.085345 -0.387659
			 0.510630 -0.791249 -0.336426
			 0.639223  0.745456 -0.188919
			 0.493276  0.310195  0.812685
			 0.511890  0.059598  0.856981
			 0.639400  0.153916  0.753311
			 0.623945 -0.384637  0.680255
			 0.355122 -0.685507 -0.635585
			 0.436538 -0.548207 -0.713375
			 0.805768 -0.460177 -0.372794
			 0.473096 -0.766505 -0.434338
			 0.112933 -0.781129  0.614071
			 0.330742 -0.710575  0.621042
			 0.221047 -0.793761  0.566640
			 0.441340 -0.650832  0.617767
			 0.408094 -0.824239 -0.392542
			 0.396706 -0.862217 -0.314969
			 0.440177 -0.716098 -0.541708
			-0.949281  0.311049 -0.045972
			-0.950657  0.310041 -0.011225
			-0.937658  0.347401  0.010470
			-0.913553  0.406679 -0.005808
			-0.965839  0.258025  0.024060
			-0.981621  0.187434  0.035888
			-0.995526  0.085890  0.039389
			-0.910859 -0.396880 -0.113235
			 0.153091  0.091475  0.983969
			 0.248715 -0.930941  0.267376
			 0.192997  0.148800  0.969851
			 0.293341  0.517333  0.803938
			 0.284019  0.455442  0.843745
			 0.336446  0.307812  0.889975
			-0.207065  0.918197  0.337697
			-0.203636  0.923293  0.325672
			-0.184386  0.981041  0.059676
			-0.095949  0.954087  0.283747
			-0.566190  0.820313 -0.080712
			-0.076367  0.854691  0.513489
			-0.622704  0.595921  0.507069
			-0.537362  0.542909  0.645362
			-0.865356  0.411048  0.286705
			-0.841836  0.496864  0.210802
			-0.825443  0.531974  0.188806
			-0.831610  0.537846  0.138371
			-0.879112  0.473063  0.058079
			-0.847452  0.518190  0.115343
			-0.055260  0.987577 -0.147101
			-0.023525  0.999253  0.030674
			-0.094011  0.991963  0.084685
			-0.076285  0.930182 -0.359086
			-0.073783  0.982333 -0.171982
			-0.090351  0.983197 -0.158621
			-0.045866  0.937382 -0.345271
			-0.020544  0.886726 -0.461838
			-0.071029  0.823227 -0.563251
			-0.101289  0.724677 -0.681604
			-0.143972  0.610868 -0.778532
			-0.148823  0.541788 -0.827235
			-0.145065  0.378002 -0.914369
			-0.089903  0.286372 -0.953891
			-0.076530  0.202551 -0.976277
			 0.107273  0.026410 -0.993879
			-0.011159  0.040125 -0.999132
			 0.377425 -0.110436 -0.919431
			 0.651380  0.184965 -0.735862
			 0.214761 -0.116815 -0.969656
			 0.641043  0.422949 -0.640451
			 0.744884 -0.578738 -0.331981
			 0.703881 -0.423148 -0.570524
			 0.651011 -0.144918 -0.745106
			 0.468168  0.157201  0.869544
			 0.315116  0.097144  0.944068
			 0.357818 -0.036766  0.933067
			 0.421736 -0.106121  0.900487
			 0.541076 -0.166558  0.824315
			 0.615986 -0.374753 -0.692907
			 0.664323 -0.002672 -0.747441
			 0.731610 -0.390977 -0.558466
			 0.454286 -0.694426 -0.558030
			 0.417873 -0.835015 -0.357956
			 0.648907 -0.305556  0.696817
			 0.437834  0.049000  0.897720
			 0.625017  0.063787  0.778000
			 0.588730 -0.453229  0.669313
			 0.422189 -0.495286  0.759242
			 0.400060 -0.534491  0.744494
			 0.414533 -0.405113  0.814890
			 0.277778 -0.875132 -0.396211
			 0.304578 -0.822478 -0.480377
			 0.291091 -0.907399 -0.303139
			 0.350017 -0.905810 -0.238738
			 0.308460 -0.570547 -0.761136
			 0.242441 -0.717862 -0.652608
			-0.950948  0.306436  0.042365
			-0.910726  0.409940  0.050273
			-0.976683  0.207765  0.054075
			-0.990464  0.107940  0.085614
			-0.993897  0.042447  0.101815
			-0.887478 -0.449938 -0.099690
			 0.075255  0.478664  0.874767
			 0.142599  0.495095  0.857057
			 0.152070  0.551934  0.819905
			 0.149771  0.562422  0.813173
			-0.239900 -0.152155  0.958800
			-0.759570 -0.647763  0.058791
			 0.207346  0.555329  0.805368
			 0.221360  0.459401  0.860204
			 0.215182  0.372689  0.902663
			 0.202509  0.279150  0.938651
			 0.180906  0.171286  0.968470
			-0.173197  0.868632  0.464200
			-0.017579  0.863659  0.503769
			 0.049619  0.910032  0.411558
			-0.018593  0.971909  0.234619
			-0.039553  0.671860  0.739621
			-0.079965  0.756082  0.649574
			-0.044961  0.477581  0.877437
			-0.492708  0.329094  0.805565
			-0.732009  0.438685  0.521265
			-0.796496  0.533875  0.283850
			-0.819538  0.544275  0.179227
			-0.864723  0.490655  0.107292
			-0.052304  0.998526 -0.014472
			-0.007935  0.977768  0.209537
			-0.039240  0.982169 -0.183862
			-0.046952  0.998434  0.030408
			-0.062940  0.995417  0.071993
			 0.030016  0.945602 -0.323939
			 0.043235  0.982982 -0.178541
			 0.026264  0.917584 -0.396673
			-0.024973  0.834443 -0.550528
			-0.054513  0.735626 -0.675191
			-0.087158  0.597906 -0.796813
			-0.146644  0.529715 -0.835403
			-0.157785  0.430870 -0.888513
			-0.151476  0.474566 -0.867089
			-0.121651  0.188150 -0.974577
			-0.138665  0.250840 -0.958046
			-0.150042  0.291594 -0.944701
			-0.107822  0.088189 -0.990251
			 0.060133 -0.140064 -0.988315
			-0.054118 -0.072257 -0.995917
			 0.317402 -0.311332 -0.895728
			 0.168748 -0.268935 -0.948260
			 0.114944  0.042022  0.992483
			 0.252371  0.022639  0.967366
			 0.346768  0.062543  0.935863
			 0.406078 -0.004723  0.913826
			 0.419546 -0.219991  0.880673
			 0.597596 -0.643789 -0.477928
			 0.501347 -0.825091 -0.260532
			 0.697479 -0.651031 -0.299468
			 0.825748  0.272043 -0.494097
			 0.932275  0.334598 -0.137507
			 0.628377  0.243752  0.738733
			 0.798766 -0.088593  0.595083
			 0.721711 -0.521768  0.454853
			 0.653888 -0.484691  0.580952
			 0.532005 -0.317083  0.785130
			 0.275935 -0.940588 -0.197873
			 0.194393 -0.835272 -0.514326
			 0.192508 -0.921032 -0.338587
			 0.402660 -0.910064 -0.098230
			 0.410481 -0.907863 -0.085384
			 0.196304 -0.477490 -0.856427
			 0.139410 -0.765971 -0.627577
			 0.141755 -0.580013 -0.802178
			-0.941158  0.333516  0.054668
			-0.900952  0.427413  0.074855
			-0.955515  0.290157  0.052920
			-0.988748  0.143897  0.040888
			-0.995075  0.060941  0.078176
			-0.996467  0.017416  0.082166
			-0.997566 -0.069057  0.009641
			 0.128213  0.419084  0.898850
			-0.412258  0.307451  0.857623
			 0.154573  0.377852  0.912872
			-0.654579 -0.102361  0.749032
			-0.919762 -0.385724 -0.072486
			 0.101356  0.272149  0.956902
			 0.086730  0.207536  0.974375
			 0.073317  0.111482  0.991058
			 0.146085  0.775566  0.614130
			 0.097408  0.749579  0.654709
			 0.049489  0.891296  0.450714
			-0.067664  0.606629  0.792100
			 0.136980  0.629608  0.764742
			-0.122197  0.342291  0.931614
			-0.109343  0.225574  0.968070
			-0.094784  0.464528  0.880471
			-0.416423  0.270300  0.868061
			-0.327511  0.544337  0.772291
			-0.646006  0.636044  0.422048
			-0.763864  0.598337  0.241880
			-0.837539  0.528560  0.138391
			-0.011303  0.937006  0.349132
			 0.004411  0.999886 -0.014450
			-0.012065  0.976290  0.216131
			-0.041858  0.969765  0.240422
			-0.046560  0.951243  0.304909
			-0.039161  0.946381  0.320671
			 0.042994  0.961861 -0.270137
			 0.047136  0.991458 -0.121609
			 0.075764  0.997026 -0.014083
			-0.021055  0.939398 -0.342182
			-0.050436  0.877957 -0.476075
			-0.073466  0.800679 -0.594572
			-0.060295  0.683602 -0.727360
			-0.056882  0.521880 -0.851120
			-0.118744  0.390627 -0.912859
			-0.140618  0.428054 -0.892746
			-0.155110  0.263656 -0.952064
			-0.114917  0.071022 -0.990833
			-0.100349  0.017335 -0.994801
			 0.095380 -0.342529 -0.934653
			 0.013301 -0.252609 -0.967477
			-0.084590 -0.092009 -0.992159
			-0.027034 -0.198700 -0.979687
			 0.005536  0.052863  0.998586
			 0.142855  0.070696  0.987216
			 0.296967  0.190966  0.935597
			 0.388983  0.194492  0.900480
			 0.397736  0.111826  0.910660
			 0.397108  0.007448  0.917741
			 0.459621 -0.120647  0.879882
			 0.377049  0.105506  0.920164
			 0.406962 -0.889963 -0.205786
			 0.675877 -0.735656  0.044722
			 0.958766 -0.166272 -0.230479
			 0.963467 -0.204111 -0.173405
			 0.816173  0.433276  0.382274
			 0.717956 -0.582322  0.381366
			 0.499005 -0.714451  0.490462
			 0.492035 -0.522227  0.696550
			 0.639035 -0.699647  0.319574
			 0.566447 -0.307775  0.764469
			 0.542776 -0.166872  0.823133
			 0.393093 -0.910534  0.128085
			 0.182827 -0.978908 -0.091181
			 0.128972 -0.878610 -0.459795
			 0.118706 -0.961554 -0.247635
			 0.536656 -0.843761  0.008217
			 0.114433 -0.653537 -0.748194
			 0.125416 -0.814080 -0.567049
			 0.071889 -0.452274 -0.888977
			-0.890189  0.447338  0.086324
			-0.946491  0.322057 -0.020860
			-0.989980  0.051314 -0.131555
			-0.999904  0.002547  0.013613
			-0.901804 -0.203961 -0.380985
			-0.987369 -0.116719 -0.107139
			 0.099503  0.381147  0.919144
			-0.930614  0.106495  0.350166
			 0.137689  0.312625  0.939844
			 0.044870  0.242921  0.969008
			-0.036882  0.148639  0.988204
			-0.037239  0.085437  0.995647
			 0.154359  0.652248  0.742122
			 0.060719  0.790450  0.609509
			 0.041674  0.496324  0.867136
			 0.241003  0.490926  0.837203
			 0.231505  0.483854  0.843973
			-0.056451  0.142613  0.988167
			-0.035666  0.323040  0.945713
			-0.130286  0.273551  0.952993
			-0.395380  0.788266  0.471498
			 0.017171  0.560255  0.828142
			 0.088481  0.348503  0.933122
			-0.762575  0.628734  0.152227
			 0.000792  0.861646  0.507510
			 0.040269  0.989380  0.139660
			 0.033374  0.940429  0.338348
			-0.017397  0.898787  0.438041
			-0.037268  0.924399  0.379602
			-0.045651  0.904227  0.424606
			-0.039402  0.859444  0.509710
			-0.026949  0.889099  0.456921
			-0.010219  0.979951 -0.198977
			 0.052774  0.998193  0.028749
			 0.048944  0.998608  0.019670
			 0.067417  0.981124  0.181247
			-0.027999  0.927331 -0.373193
			-0.039390  0.845759 -0.532110
			 0.048239  0.712073 -0.700446
			-0.000193  0.552856 -0.833277
			-0.040541  0.401148 -0.915116
			-0.049927  0.331751 -0.942045
			-0.071535  0.372444 -0.925294
			-0.109180  0.249337 -0.962243
			-0.164129  0.202399 -0.965451
			-0.181232  0.179819 -0.966861
			-0.146639  0.025362 -0.988865
			 0.027627 -0.350618 -0.936111
			 0.029905 -0.309296 -0.950496
			-0.092562 -0.183631 -0.978627
			 0.079150  0.204482  0.975665
			 0.208287  0.358688  0.909923
			 0.362524  0.285065  0.887307
			 0.351471  0.188085  0.917111
			 0.323456  0.329643  0.886968
			 0.448687 -0.156012  0.879966
			 0.314891 -0.026843  0.948748
			 0.323571  0.075549  0.943183
			 0.270293  0.151134  0.950842
			 0.314395 -0.743000  0.590853
			 0.248528 -0.897851  0.363453
			 0.312975 -0.603172  0.733642
			 0.341878 -0.465876  0.816136
			 0.458536 -0.362343  0.811450
			 0.223990 -0.964194  0.141983
			 0.135263 -0.990614 -0.019669
			 0.124926 -0.950244 -0.285359
			 0.128103 -0.513993 -0.848175
			 0.150686 -0.706593 -0.691389
			 0.162149 -0.880743 -0.444972
			 0.091713 -0.389964 -0.916252
			-0.731791  0.623575  0.275020
			-0.427119  0.251404  0.868542
			 0.054683  0.679113  0.731994
			 0.119202  0.544102  0.830509
			 0.023177  0.710157  0.703662
			 0.224122  0.377717  0.898387
			-0.005864  0.801879  0.597458
			 0.038309  0.906099  0.421329
			 0.010788  0.858784  0.512224
			-0.016901  0.801554  0.597684
			-0.046783  0.830311  0.555334
			-0.026489  0.755421  0.654704
			 0.177294  0.982057 -0.064280
			 0.156934  0.962962 -0.219262
			 0.045570  0.957325  0.285398
			 0.370373  0.905305  0.207960
			 0.387632  0.918125  0.082393
			 0.032699  0.984817  0.170489
			 0.041531  0.938431  0.342961
			 0.173328  0.803305 -0.569789
			 0.200488  0.893033 -0.402861
			 0.379408  0.635170 -0.672762
			 0.348541  0.489439 -0.799355
			 0.140931  0.402656 -0.904438
			 0.001148  0.301402 -0.953496
			-0.045106  0.189699 -0.980806
			-0.145608  0.002292 -0.989340
			-0.194946 -0.044775 -0.979791
			-0.087241 -0.340685 -0.936121
			 0.087556 -0.446790 -0.890344
			 0.245105  0.246342  0.937678
			 0.355117 -0.320930  0.878007
			 0.330990 -0.153688  0.931034
			 0.225166 -0.104002  0.968754
			 0.129984  0.014482  0.991410
			 0.221070  0.092373  0.970873
			 0.122431  0.179682  0.976076
			 0.163957 -0.826510  0.538516
			 0.135348 -0.665190  0.734304
			 0.122891 -0.951134  0.283270
			 0.118418 -0.894366  0.431378
			 0.168015 -0.963224  0.209691
			 0.220842 -0.546924  0.807529
			 0.237253 -0.421919  0.875040
			 0.122047 -0.990085  0.069546
			 0.132568 -0.987569 -0.084454
			 0.162501 -0.566808 -0.807664
			 0.149784 -0.751397 -0.642625
			 0.152735 -0.941697 -0.299798
			 0.057576  0.634715  0.770598
			 0.036184  0.525038  0.850309
			 0.112825  0.356284  0.927541
			-0.003151  0.662725  0.748856
			 0.042762  0.852407  0.521127
			 0.036081  0.798249  0.601246
			 0.026190  0.738064  0.674222
			-0.019472  0.639072  0.768901
			-0.037409  0.707388  0.705835
			-0.062937  0.794580  0.603889
			-0.050242  0.716492  0.695784
			-0.011134  0.601590  0.798727
			 0.491514  0.866063 -0.091367
			 0.382565  0.869370 -0.312794
			 0.072726  0.838339  0.540277
			 0.291942  0.880732  0.372935
			 0.025028  0.803886  0.594256
			 0.026000  0.927951  0.371795
			 0.636127  0.693950  0.337308
			 0.606997  0.775626  0.173089
			 0.028151  0.823861  0.566093
			 0.517544  0.711320 -0.475574
			 0.691719  0.440858 -0.571987
			 0.457878  0.329641 -0.825642
			 0.608214  0.339641 -0.717439
			 0.117984  0.260415 -0.958261
			 0.460875  0.205533 -0.863337
			 0.032254  0.175510 -0.983949
			-0.058424  0.097363 -0.993533
			-0.094610 -0.097230 -0.990755
			-0.211335 -0.260260 -0.942126
			-0.217114 -0.205998 -0.954163
			-0.182281 -0.426365 -0.885995
			-0.025605 -0.515928 -0.856249
			 0.103859 -0.512427 -0.852427
			 0.259830 -0.275563  0.925501
			 0.129467 -0.245977  0.960590
			 0.128853 -0.111704  0.985352
			 0.073216 -0.052704  0.995923
			 0.050791  0.107175  0.992942
			 0.030694  0.299689  0.953543
			 0.040522 -0.819135  0.572167
			-0.043881 -0.570160  0.820361
			 0.073815 -0.483345  0.872312
			 0.162202 -0.529013  0.832968
			 0.098180 -0.976797  0.190336
			 0.109460 -0.933658  0.341029
			 0.062323 -0.909275  0.411503
			 0.144571 -0.444225  0.884174
			 0.161027 -0.382449  0.909837
			 0.113158 -0.990495  0.078192
			 0.083980 -0.599640 -0.795851
			 0.066338 -0.624430 -0.778258
			 0.028825 -0.707856 -0.705769
			 0.083903 -0.847657 -0.523868
			 0.075430 -0.970763 -0.227881
			 0.007098  0.488708  0.872418
			 0.063777  0.711700  0.699583
			 0.065769  0.659028  0.749238
			 0.023990  0.533240  0.845624
			-0.011512  0.406280  0.913676
			-0.037292  0.443435  0.895530
			-0.016522  0.521322  0.853200
			 0.009835  0.379436  0.925166
			 0.678414  0.669322 -0.302924
			 0.657787  0.743042 -0.123306
			 0.152359  0.734575  0.661201
			 0.056449  0.645958  0.761283
			 0.495827  0.686297  0.532121
			 0.051431  0.544492  0.837188
			 0.027077  0.703172  0.710503
			 0.600976  0.703058  0.380181
			 0.555570  0.556304  0.617955
			 0.654344  0.742114  0.145261
			 0.070932  0.600906  0.796167
			 0.723951  0.383248 -0.573598
			 0.698612  0.584727 -0.412353
			 0.628048  0.218049 -0.747001
			 0.693978  0.212096 -0.688048
			 0.258739  0.154230 -0.953555
			 0.431009  0.111224 -0.895467
			 0.391307 -0.006077 -0.920240
			 0.607995  0.057148 -0.791882
			 0.040157  0.037120 -0.998504
			 0.187525  0.077001 -0.979237
			-0.087980  0.031108 -0.995636
			-0.081151 -0.055393 -0.995161
			-0.128701 -0.304990 -0.943619
			-0.146887 -0.384321 -0.911439
			-0.194823 -0.549344 -0.812567
			-0.139045 -0.563006 -0.814672
			-0.085556 -0.654342 -0.751344
			 0.080397 -0.353924  0.931812
			 0.049725 -0.149929  0.987446
			 0.042688 -0.100539  0.994017
			 0.107047 -0.182118  0.977432
			 0.018776  0.134912  0.990680
			 0.015439 -0.811969  0.583497
			-0.049923 -0.651119  0.757332
			-0.172506 -0.412344  0.894547
			-0.004891 -0.435557  0.900148
			 0.046531 -0.985790  0.161411
			 0.104574 -0.898007  0.427372
			 0.163868 -0.863997  0.476084
			 0.137298 -0.844685  0.517356
			 0.061356 -0.425215  0.903010
			-0.076127 -0.699158 -0.710903
			-0.062270 -0.760232 -0.646660
			-0.001589 -0.792710 -0.609597
			-0.011382 -0.862342 -0.506198
			-0.000334 -0.970686 -0.240352
			 0.088783  0.500553  0.861141
			 0.039305  0.341296  0.939134
			 0.013904  0.202098  0.979267
			-0.025544  0.237682  0.971007
			 0.005068  0.153907  0.988072
			-0.000308  0.310844  0.950461
			 0.742668  0.667964 -0.047637
			 0.750546  0.576988 -0.322125
			 0.103332  0.526750  0.843716
			 0.341091  0.557267  0.757041
			 0.034557  0.421568  0.906138
			 0.075752  0.334108  0.939486
			 0.111413  0.380443  0.918069
			 0.755153  0.628317  0.186978
			 0.541330  0.605434  0.583448
			 0.660951  0.616883  0.427317
			 0.256493  0.445808  0.857594
			 0.405626  0.498901  0.765875
			 0.541621  0.448152  0.711200
			 0.125345  0.433815  0.892240
			 0.801652  0.484286 -0.350457
			 0.830333  0.241656 -0.502144
			 0.778578  0.114906 -0.616938
			 0.733981  0.031498 -0.678440
			 0.535076 -0.157910 -0.829914
			 0.202752 -0.162272 -0.965691
			 0.416679 -0.264689 -0.869666
			 0.712659 -0.126638 -0.689986
			 0.065175 -0.089279 -0.993872
			-0.060647 -0.091937 -0.993916
			-0.088911 -0.193249 -0.977113
			-0.142731 -0.573810 -0.806455
			-0.195990 -0.493677 -0.847272
			-0.133593 -0.715749 -0.685461
			-0.096912 -0.733696 -0.672532
			 0.050914 -0.268067  0.962054
			 0.055157  0.039481  0.997697
			 0.026412  0.028438  0.999247
			 0.198672 -0.701428  0.684491
			 0.157881 -0.401865  0.901986
			-0.298640 -0.387219  0.872282
			-0.100558 -0.316927  0.943104
			 0.028352 -0.998893 -0.037536
			 0.041972 -0.954377  0.295639
			 0.041878 -0.856634  0.514222
			 0.144823 -0.819388  0.554643
			 0.215635 -0.772635  0.597107
			-0.136886 -0.743722 -0.654324
			-0.237360 -0.764177 -0.599746
			-0.080226 -0.869626 -0.487150
			-0.006682 -0.931950 -0.362525
			 0.120533  0.338940  0.933055
			 0.093817  0.227112  0.969339
			 0.831418  0.550174 -0.077803
			 0.111517  0.363474  0.924906
			 0.036311  0.348499  0.936606
			 0.043064  0.230457  0.972129
			 0.119388  0.179594  0.976469
			 0.140881  0.290663  0.946397
			 0.886219  0.444180  0.131607
			 0.794445  0.492943  0.354773
			 0.616763  0.492529  0.614018
			 0.218681  0.334770  0.916574
			 0.077539  0.196126  0.977508
			 0.448122  0.328928  0.831260
			 0.534100  0.345241  0.771716
			 0.505564  0.243066  0.827843
			 0.890547  0.376520 -0.255262
			 0.896392  0.441170 -0.043009
			 0.946528  0.209679 -0.245191
			 0.947445  0.128815 -0.292839
			 0.889458  0.025961 -0.456279
			 0.780399 -0.076813 -0.620546
			 0.852297 -0.166366 -0.495896
			 0.826539 -0.235851 -0.511085
			 0.559718 -0.304374 -0.770761
			-0.041297 -0.413882 -0.909393
			 0.051759 -0.662206 -0.747532
			 0.463108 -0.552106 -0.693332
			 0.750697 -0.295017 -0.591117
			-0.167647 -0.679778 -0.714000
			-0.264772 -0.670597 -0.692962
			-0.259414 -0.742127 -0.618023
			 0.113786 -0.085096  0.989854
			 0.076413 -0.192136  0.978389
			 0.226403 -0.584551  0.779129
			 0.342563 -0.449747  0.824851
			-0.028453  0.029394  0.999163
			 0.204891 -0.052632  0.977369
			 0.176297  0.141204  0.974157
			-0.146466  0.021680  0.988978
			-0.030355 -0.990777 -0.132060
			-0.046348 -0.971430  0.232755
			-0.037520 -0.906380  0.420794
			-0.069827 -0.829759  0.553736
			 0.038707 -0.767706  0.639633
			 0.194481 -0.685721  0.701402
			-0.195313 -0.900216 -0.389185
			-0.226483 -0.925897 -0.302356
			-0.340726 -0.732681 -0.589139
			 0.144110  0.082584  0.986110
			 0.031752  0.044331  0.998512
			 0.088173 -0.078410  0.993014
			 0.944080  0.304493  0.126481
			 0.891593  0.332582  0.307329
			 0.729959  0.402731  0.552238
			 0.290992  0.217609  0.931649
			 0.136229  0.040841  0.989835
			 0.013791 -0.019125  0.999722
			-0.029256 -0.013910  0.999475
			 0.777462  0.278552  0.563881
			 0.601473  0.186453  0.776830
			 0.517884  0.048346  0.854084
			 0.391591  0.051726  0.918684
			 0.950954  0.306472 -0.041976
			 0.983280  0.180090 -0.026978
			 0.983819  0.056174 -0.170133
			 0.929932 -0.136052 -0.341637
			 0.837415 -0.384942 -0.388014
			 0.874943 -0.384523 -0.294308
			 0.818647 -0.505618 -0.272336
			 0.781980 -0.517863 -0.346879
			 0.579723 -0.499110 -0.644057
			 0.221683 -0.781327 -0.583424
			-0.018215 -0.837819 -0.545645
			-0.212112 -0.693171 -0.688856
			-0.113540 -0.828391 -0.548523
			 0.507324 -0.726028 -0.464226
			 0.339242 -0.831646 -0.439636
			 0.136767 -0.152899  0.978732
			 0.187399 -0.242058  0.951992
			 0.265814 -0.193062  0.944495
			 0.210158 -0.527980  0.822843
			 0.106245 -0.412655  0.904670
			-0.118391 -0.991910  0.045808
			-0.008639 -0.930071  0.367279
			-0.052491 -0.883203  0.466044
			-0.074546 -0.828589  0.554872
			-0.106838 -0.721399  0.684229
			 0.026822 -0.664300  0.746985
			 0.090839 -0.599192  0.795435
			 0.067365 -0.986780 -0.147400
			 0.254933 -0.638987 -0.725744
			 0.010743 -0.986815  0.161494
			 0.431798 -0.879840  0.198578
			 0.002510 -0.118523  0.992948
			 0.048280 -0.220066  0.974290
			 0.963369  0.198237  0.180616
			 0.909097  0.223650  0.351458
			 0.251600 -0.177056  0.951498
			 0.077435 -0.158738  0.984279
			-0.039026 -0.240017  0.969984
			-0.055941 -0.102304  0.993179
			-0.060480 -0.131740  0.989438
			 0.766647  0.064772  0.638793
			 0.683319 -0.077918  0.725950
			 0.500328 -0.242409  0.831210
			 0.484538 -0.149472  0.861906
			 0.989250  0.094145  0.111903
			 0.985084 -0.120919 -0.122426
			 0.787057 -0.592306 -0.172380
			 0.907284 -0.410087 -0.093086
			 0.757286 -0.647102 -0.088186
			 0.738653 -0.669902 -0.074978
			 0.796506 -0.601289 -0.063486
			 0.669291 -0.711124 -0.215295
			 0.107044 -0.920055 -0.376882
			 0.801458 -0.060717 -0.594961
			 0.438831 -0.876301 -0.198808
			 0.256991 -0.950822 -0.172897
			-0.021348 -0.259190  0.965590
			-0.100872 -0.525422  0.844841
			 0.230133 -0.917766  0.323643
			 0.163086 -0.855284  0.491825
			 0.639097 -0.625380  0.447722
			 0.002808 -0.829470  0.558544
			-0.111106 -0.706585  0.698851
			 0.981197  0.137431  0.135516
			 0.747410  0.649685  0.138879
			 0.902701  0.108124  0.416462
			 0.361735 -0.403055  0.840651
			 0.130671 -0.479154  0.867950
			-0.075994 -0.495832  0.865087
			-0.121043 -0.345884  0.930437
			-0.099045 -0.238995  0.965956
			 0.537680 -0.431896  0.724131
			 0.798365 -0.319944  0.510146
			 0.905569  0.001791  0.424195
			 0.378405 -0.580571  0.720935
			 0.969780 -0.184405  0.159752
			 0.630685 -0.772846  0.070327
			 0.812620 -0.561690  0.155412
			 0.617767 -0.763665  0.187565
			 0.562639 -0.823720  0.070169
			 0.615259 -0.787698 -0.031433
			 0.991496 -0.057699 -0.116644
			 0.264916 -0.963327 -0.042675
			 0.359890 -0.932845 -0.016735
			 0.216788 -0.871885  0.439111
			 0.272317 -0.915960  0.294723
			 0.355945 -0.890011  0.284926
			 0.510923 -0.853272  0.104327
			 0.067071 -0.679297  0.730792
			 0.191521 -0.762133  0.618444
			 0.296287 -0.626962  0.720509
			 0.451776 -0.696638  0.557310
			 0.630154 -0.636900  0.444145
			 0.507297 -0.818909  0.268398
			 0.468692 -0.859546  0.203736
			 0.395595 -0.897959  0.192805
			 0.308100 -0.947320  0.087516
			 0.279544 -0.954653  0.102431
			 0.395744 -0.796172  0.457708
			 0.373316 -0.859021  0.350311
			 0.333015 -0.776364  0.535126
			 0.372638 -0.884023  0.282214
			 0.330336 -0.681667  0.652846
		</DataArray>
	</PointData>
	<Points>
		<DataArray type="Float32" NumberOfComponents="3" format="ascii">
			 0.001985  0.000715 -0.003432
			 0.001844  0.000224 -0.003891
			 0.001315  0.000506 -0.003436
			 0.001895  0.001126 -0.002945
			 0.001523  0.000955 -0.003094
			 0.002444  0.001013 -0.003158
			 0.003011  0.000536 -0.003836
			 0.002667 -0.000007 -0.004301
			 0.001177 -0.000413 -0.004246
			 0.000956  0.000085 -0.003628
			 0.000895  0.001469 -0.002561
			 0.000819  0.000491 -0.003185
			 0.002357  0.001415 -0.002606