<?xml version="1.0"?>
<VTKFile type="PolyData" version="0.1" byte_order="LittleEndian" compressor="vtkZLibDataCompressor">
	<PolyData>
		<Piece NumberOfPoints="690" NumberOfVerts="0" NumberOfLines="0" NumberOfStrips="0" NumberOfPolys="1376">
		<PointData Normals="Normals">
		<DataArray type="Float32" Name="Normals" NumberOfComponents="3" format="ascii">
			 0.581680  0.813134 -0.021490
			 0.381742  0.924257  0.004581
			 0.319201  0.926230 -0.200518
			 0.449292  0.877202 -0.169275
			 0.585825  0.801080  0.122801
			 0.694671  0.696862  0.178370
			 0.767349  0.615122  0.181108
			 0.471559  0.872051  0.130995
			 0.681257  0.729535  0.060563
			 0.294345  0.938643  0.179753
			 0.140296  0.986422 -0.085367
			 0.229167  0.939931 -0.253005
			 0.045946  0.964611 -0.259644
			 0.380418  0.919288 -0.100955
			 0.619940  0.769633  0.152775
			 0.628867  0.735583  0.251881
			 0.538165  0.798665  0.269284
			 0.684008  0.626402  0.373836
			 0.765358  0.528233  0.367692
			 0.765199  0.536385  0.356035
			 0.424842  0.856514  0.293075
			 0.088482  0.986903  0.134880
			 0.342315  0.853185  0.393567
			 0.180187  0.918508  0.351959
			-0.067688  0.996407 -0.050901
			 0.242530  0.953617 -0.178306
			 0.102910  0.946679 -0.305301
			-0.110642  0.890371 -0.441586
			-0.184596  0.940608 -0.284923
			 0.337633  0.941087  0.018932
			 0.473000  0.859669  0.192977
			 0.653643  0.613322  0.443381
			 0.622362  0.689332  0.370793
			 0.551098  0.747663  0.370529
			 0.464643  0.802935  0.373365
			 0.633180  0.589335  0.501764
			 0.709080  0.509181  0.487792
			 0.759575  0.427541  0.490158
			 0.741511  0.413147  0.528649
			-0.048623  0.971503  0.231987
			 0.061432  0.931512  0.358484
			 0.362473  0.765490  0.531638
			 0.235760  0.835032  0.497131
			 0.092199  0.833294  0.545087
			-0.167960  0.976554  0.134655
			-0.197801  0.977890 -0.067860
			 0.260542  0.929196 -0.262131
			 0.405800  0.906763 -0.114486
			 0.083632  0.897325 -0.433375
			-0.260234  0.771656 -0.580366
			-0.285185  0.863616 -0.415737
			-0.084764  0.800227 -0.593676
			-0.276652  0.907917 -0.314882
			-0.294824  0.946932 -0.128059
			 0.490594  0.817710  0.301112
			 0.406503  0.907870  0.102605
			 0.564408  0.670328  0.481771
			 0.651208  0.467132  0.598093
			 0.557689  0.688689  0.463347
			 0.508519  0.735585  0.447574
			 0.467403  0.739927  0.483780
			 0.514398  0.609498  0.603247
			 0.439415  0.807547  0.393423
			 0.454050  0.871602 -0.184795
			 0.650355  0.757785  0.052912
			 0.661627  0.747316  0.061392
			-0.093490  0.911898  0.399626
			-0.002312  0.898318  0.439340
			 0.400342  0.654570  0.641300
			 0.318804  0.635163  0.703514
			 0.207892  0.700485  0.682716
			 0.153700  0.613001  0.774988
			 0.088931  0.617365  0.781634
			 0.008190  0.763119  0.646206
			-0.213635  0.948523  0.233803
			 0.387641  0.744468 -0.543601
			 0.857653  0.504954 -0.097225
			 0.393757  0.918866  0.025296
			 0.872917  0.269811 -0.406471
			-0.189200  0.674339 -0.713772
			-0.247287  0.612674 -0.750653
			-0.313482  0.802668 -0.507398
			-0.338739  0.840825 -0.422220
			-0.322697  0.927392 -0.189238
			-0.000548  0.617640 -0.786461
			-0.276967  0.954086  0.114060
			 0.492731  0.827543  0.269052
			 0.561723  0.696185  0.446984
			 0.373316  0.827064 -0.420238
			 0.230068  0.676150 -0.699922
			 0.480250  0.703416  0.523991
			 0.443669  0.704474  0.553962
			 0.455934  0.581698  0.673610
			 0.505816  0.623013  0.596661
			 0.471452  0.684378  0.556201
			-0.929581  0.288560 -0.229376
			 0.446027  0.799225  0.402865
			 0.438351  0.605974  0.663810
			-0.637904  0.327768 -0.696883
			-0.940257 -0.123756 -0.317176
			-0.100333  0.726240  0.680079
			 0.438170  0.634634  0.636590
			 0.404416  0.571132  0.714322
			 0.363417  0.524880  0.769694
			 0.308055  0.504450  0.806618
			 0.233151  0.521046  0.821067
			 0.193722  0.466865  0.862849
			 0.197738  0.355106  0.913674
			 0.142775  0.464688  0.873888
			-0.012387  0.533065  0.845983
			 0.040373  0.400073  0.915594
			-0.192893  0.873286  0.447396
			 0.096253  0.384552 -0.918071
			 0.561419  0.244038 -0.790730
			 0.953305 -0.253412 -0.164293
			 0.830213 -0.369683 -0.417229
			 0.794174  0.555432  0.246542
			 0.989530 -0.144156  0.007016
			 0.557049 -0.235211 -0.796474
			-0.141372  0.512769 -0.846807
			-0.302618  0.726455 -0.616997
			-0.192716  0.439512 -0.877320
			-0.148282  0.420492 -0.895097
			-0.239859  0.526095 -0.815900
			-0.320146  0.859803 -0.397801
			-0.317258  0.925660 -0.206159
			-0.265809  0.957611  0.111023
			-0.233164  0.932865  0.274585
			 0.041079  0.690759 -0.721917
			 0.006480 -0.225116 -0.974310
			 0.522790 -0.564190 -0.639046
			 0.318009 -0.365956 -0.874612
			-0.763869  0.099873 -0.637597
			 0.469909  0.704143  0.532324
			 0.515127  0.683044  0.517779
			 0.634423  0.605220  0.480850
			-0.817638 -0.575615  0.011674
			-0.827557  0.493000  0.268516
			-0.820382 -0.571812 -0.001995
			 0.309645  0.887955  0.340082
			-0.852923 -0.504425  0.134454
			-0.853056 -0.520659  0.034779
			 0.710562  0.531872  0.460667
			-0.958283 -0.280227  0.056267
			-0.957982 -0.275237  0.080713
			-0.960114 -0.271493  0.066883
			-0.942592 -0.333802  0.009842
			-0.955261 -0.295202  0.018199
			-0.144858  0.454186  0.879051
			-0.184332  0.555764  0.810647
			-0.159140  0.784956  0.598765
			 0.405541  0.536672  0.739946
			 0.425122  0.554606  0.715321
			 0.516864  0.621232  0.589002
			 0.373307  0.459634  0.805840
			 0.302689  0.327294  0.895130
			 0.328261  0.422368  0.844896
			 0.260906  0.374228  0.889877
			 0.227252  0.417743  0.879686
			 0.215697  0.321009  0.922187
			 0.227049  0.180231  0.957061
			 0.190474  0.093559  0.977224
			 0.128130  0.238988  0.962532
			-0.122098  0.338671  0.932949
			-0.020265  0.224101  0.974355
			-0.059762  0.325447 -0.943670
			 0.147541  0.179046 -0.972715
			 0.824595 -0.553763 -0.115710
			 0.648618 -0.560252 -0.515182
			 0.687041 -0.692852 -0.218930
			 0.140101  0.465896 -0.873678
			 0.812619  0.229994 -0.535494
			 0.841764 -0.446715 -0.303116
			 0.119434 -0.038950 -0.992078
			 0.473354 -0.495455 -0.728328
			 0.175060 -0.084578 -0.980918
			 0.259619 -0.280528 -0.924068
			-0.321280  0.692400 -0.646036
			-0.297293  0.875450 -0.381056
			-0.140991  0.306481 -0.941377
			-0.241081  0.390921 -0.888291
			-0.105579  0.274363 -0.955813
			-0.251544  0.666636 -0.701657
			-0.318826  0.940966 -0.113722
			-0.274425  0.941459 -0.195818
			-0.294627  0.941026  0.166328
			-0.239314  0.863653  0.443658
			 0.573584 -0.798156 -0.184250
			 0.400619 -0.801787 -0.443442
			-0.420563 -0.466327 -0.778246
			-0.951467 -0.298134  0.076331
			-0.960399 -0.276618 -0.033411
			-0.918747 -0.291323 -0.266524
			-0.947612 -0.302790 -0.101730
			-0.955430 -0.267136 -0.125666
			 0.564209  0.665859  0.488160
			 0.648517  0.590891  0.479869
			-0.848798 -0.512961  0.128114
			-0.859858 -0.510501  0.005674
			-0.897128 -0.051911  0.438710
			-0.211020  0.798728  0.563475
			 0.394326  0.719505  0.571682
			-0.920787 -0.389892 -0.011624
			-0.911557 -0.410642 -0.020923
			-0.960862 -0.274176  0.039643
			-0.960392 -0.273490  0.053391
			-0.946024 -0.323114 -0.025232
			-0.961084 -0.276235  0.003457
			-0.955814 -0.292723 -0.027061
			-0.186542  0.353543  0.916629
			-0.150987  0.391006  0.907919
			-0.204381  0.536701  0.818646
			-0.231515  0.681349  0.694380
			 0.298337  0.488843  0.819773
			 0.496905  0.578165  0.647155
			 0.316269  0.594301  0.739446
			 0.061903  0.488764  0.870217
			 0.127593  0.123844  0.984064
			 0.191243  0.149981  0.970016
			 0.279475  0.213727  0.936063
			 0.304325  0.289104  0.907637
			 0.254524  0.210112  0.943965
			 0.204588  0.255105  0.945021
			 0.233137  0.261947  0.936499
			 0.265339  0.040066  0.963322
			 0.189538 -0.111286  0.975546
			 0.111251 -0.008398  0.993757
			 0.024843  0.077637  0.996672
			-0.118782  0.222211  0.967736
			-0.159422  0.136878  0.977675
			-0.100733  0.020390  0.994704
			-0.017298  0.079004 -0.996724
			 0.559077 -0.698652 -0.446450
			 0.287438 -0.445522 -0.847873
			 0.368814 -0.670794 -0.643437
			 0.092710 -0.180534 -0.979190
			 0.162784 -0.359664 -0.918773
			-0.269619  0.870514 -0.411718
			-0.171006  0.980519 -0.096639
			-0.175375  0.215806 -0.960558
			-0.113251  0.151402 -0.981963
			-0.113390  0.162977 -0.980092
			-0.228610  0.231041 -0.945705
			-0.270363  0.524004 -0.807665
			-0.144995  0.941493 -0.304247
			-0.146490  0.806185 -0.573242
			-0.249930  0.967496  0.038541
			-0.206955  0.937563  0.279545
			-0.232001  0.874196  0.426565
			-0.216726  0.774686  0.594047
			 0.451895 -0.832313 -0.321008
			 0.382887 -0.910354 -0.157014
			 0.270522 -0.936002 -0.225205
			 0.001428 -0.876211 -0.481926
			-0.442269 -0.856864 -0.264920
			-0.651904 -0.697855 -0.296681
			-0.846468 -0.497692 -0.189193
			-0.960495 -0.276275  0.033488
			-0.946968 -0.319582  0.033446
			-0.931439 -0.363885 -0.002969
			-0.903122 -0.424052 -0.067463
			-0.929098 -0.360787  0.081304
			-0.919848 -0.392016 -0.014264
			-0.929123 -0.067622  0.363535
			-0.800909  0.330823  0.499100
			 0.115911  0.684050  0.720167
			-0.944201 -0.327537 -0.034715
			-0.964593 -0.263612  0.008315
			-0.964201 -0.264856  0.012969
			-0.960181 -0.270064 -0.071546
			-0.963798 -0.263964 -0.037637
			-0.041632  0.220090  0.974591
			-0.054308  0.358605  0.931908
			-0.106255  0.535607  0.837756
			-0.196261  0.639125  0.743641
			-0.838675  0.362424  0.406538
			-0.373230  0.734680  0.566520
			-0.915142  0.279475 -0.290531
			 0.011447 -0.006410  0.999914
			-0.818163 -0.379160  0.432257
			-0.996915  0.034142  0.070672
			 0.192308  0.112110  0.974910
			 0.248289  0.091534  0.964352
			 0.235542  0.104597  0.966219
			 0.171020  0.109281  0.979188
			 0.199885  0.138915  0.969922
			 0.254384  0.042756  0.966158
			 0.290683 -0.239212  0.926435
			 0.226294 -0.281773  0.932414
			 0.116919 -0.363924  0.924061
			 0.073368 -0.244804  0.966793
			 0.166301 -0.282244  0.944819
			-0.022339 -0.123527  0.992090
			 0.029520  0.036393  0.998902
			-0.033274 -0.012932  0.999363
			-0.159863  0.033288  0.986578
			-0.109973 -0.119117  0.986771
			-0.120281 -0.214769  0.969230
			-0.048524 -0.207478 -0.977035
			-0.100524 -0.102464 -0.989645
			 0.186034 -0.511342 -0.839000
			 0.242167 -0.714248 -0.656662
			 0.350717 -0.797446 -0.490996
			 0.034639 -0.366492 -0.929776
			-0.131533  0.980456  0.146303
			-0.030834  0.998937  0.034277
			-0.146507  0.112380 -0.982805
			-0.120072  0.085452 -0.989081
			-0.122190  0.056435 -0.990901
			-0.099419 -0.069510 -0.992615
			-0.170922  0.384667 -0.907093
			-0.068976  0.132374 -0.988797
			-0.127562  0.626836 -0.768638
			 0.008441  0.978053 -0.208184
			-0.037455  0.831074 -0.554899
			-0.099403  0.871906  0.479478
			-0.088267  0.938645  0.333399
			-0.119163  0.723298  0.680177
			 0.359057 -0.838070 -0.410752
			 0.273865 -0.923744 -0.267758
			 0.244541 -0.967684 -0.061547
			 0.168141 -0.972376 -0.161903
			-0.094303 -0.965129 -0.244199
			 0.112502 -0.971834 -0.207082
			-0.233401 -0.895828 -0.378176
			-0.870890 -0.466055 -0.156024
			-0.527042 -0.733053 -0.429954
			-0.967423 -0.252803 -0.013554
			-0.965012 -0.260748 -0.027627
			-0.949817 -0.310686 -0.036363
			-0.932216 -0.352660 -0.081270
			-0.962146 -0.268788 -0.045039
			-0.972731 -0.230357  0.027026
			-0.941015  0.015858 -0.337992
			-0.988748 -0.101500 -0.109887
			-0.967995 -0.248067 -0.038065
			-0.970931 -0.181591 -0.155941
			-0.962765 -0.238062 -0.128101
			-0.965799 -0.247440 -0.077498
			 0.042518  0.055220  0.997568
			 0.013237  0.196516  0.980411
			 0.063665  0.345035  0.936428
			 0.034414  0.515993  0.855901
			-0.028430  0.654150  0.755830
			-0.926887 -0.039717 -0.373233
			-0.876176 -0.054179 -0.478936
			 0.126987  0.021316  0.991675
			 0.006913 -0.170898  0.985264
			-0.719893 -0.298371  0.626680
			-0.444151 -0.268951  0.854632
			-0.834843 -0.474216  0.279565
			-0.918857 -0.353204 -0.175925
			-0.896481 -0.201028 -0.394853
			 0.153626 -0.066563  0.985885
			 0.195110 -0.015765  0.980655
			 0.156407 -0.145612  0.976900
			 0.257084 -0.023627  0.966100
			 0.241347 -0.083422  0.966847
			 0.278782 -0.313450  0.907761
			 0.279847 -0.530119  0.800412
			 0.243203 -0.428622  0.870135
			 0.195200 -0.423243  0.884739
			 0.153374 -0.419614  0.894651
			 0.150064 -0.506924  0.848828
			 0.017652 -0.472667  0.881064
			 0.090457 -0.561985  0.822187
			-0.051169 -0.360519  0.931347
			 0.115432 -0.260002  0.958684
			 0.090839 -0.114409  0.989272
			 0.094613 -0.195813  0.976066
			 0.009140 -0.227306  0.973780
			 0.064984 -0.406341  0.911408
			-0.046982 -0.352371  0.934681
			-0.093167 -0.416523  0.904339
			-0.063059 -0.326367 -0.943137
			-0.029817 -0.460138 -0.887346
			-0.076755 -0.340286 -0.937184
			-0.037233 -0.450998 -0.891748
			 0.049926 -0.525012 -0.849629
			 0.131872 -0.605311 -0.784990
			 0.087729 -0.747084 -0.658915
			 0.170759 -0.765567 -0.620282
			 0.230715 -0.830198 -0.507486
			-0.011626  0.959868  0.280210
			 0.095044  0.992272  0.079766
			-0.033705 -0.015771 -0.999307
			-0.037174 -0.128121 -0.991062
			-0.006569 -0.375774 -0.926688
			-0.043531  0.365432 -0.929820
			-0.068297  0.209886 -0.975338
			-0.075248  0.017891 -0.997004
			-0.004984 -0.025387 -0.999665
			 0.006492  0.651957 -0.758229
			 0.080743  0.953346 -0.290880
			 0.117051  0.992552 -0.033755
			 0.072365  0.841520 -0.535358
			-0.028531  0.824908  0.564547
			 0.259301 -0.864355 -0.430875
			 0.233533 -0.948948 -0.212040
			 0.229693 -0.941745 -0.245677
			 0.115644 -0.965452 -0.233516
			 0.119828 -0.969524 -0.213692
			 0.080587 -0.928948 -0.361332
			 0.204986 -0.802650 -0.560120
			-0.000830 -0.893386 -0.449289
			-0.916293 -0.180524 -0.357515
			-0.485343 -0.632354 -0.603797
			-0.955175 -0.234483 -0.180715
			-0.971656 -0.225878 -0.069739
			-0.965433 -0.238056 -0.106149
			-0.972305 -0.207627 -0.107307
			-0.956638 -0.278523 -0.085254
			-0.964193 -0.078404 -0.253346
			-0.971228 -0.219704 -0.091905
			-0.940272 -0.133506 -0.313153
			-0.957925 -0.197644 -0.208124
			-0.966283 -0.222179 -0.130126
			 0.128786  0.009264  0.991629
			 0.161182 -0.233644  0.958870
			 0.167691  0.213884  0.962358
			 0.221418  0.466712  0.856244
			 0.103805  0.704878  0.701691
			 0.060485 -0.236430  0.969764
			-0.033763 -0.389420  0.920441
			-0.470793 -0.384729  0.793938
			-0.981733 -0.140347 -0.128465
			-0.943849 -0.178655 -0.277904
			 0.146016 -0.160425  0.976188
			 0.159764 -0.208920  0.964794
			 0.206762 -0.318769  0.925006
			 0.308702 -0.199196  0.930067
			 0.250663 -0.496421  0.831105
			 0.244556 -0.626439  0.740113
			 0.302156 -0.688829  0.658951
			 0.225646 -0.685473  0.692251
			 0.187653 -0.594679  0.781757
			 0.159803 -0.565470  0.809139
			 0.118656 -0.675915  0.727365
			 0.033368 -0.646736  0.761984
			-0.012332 -0.588914  0.808102
			 0.057022 -0.700873  0.711003
			 0.158412 -0.528173  0.834230
			 0.149860 -0.372637  0.915797
			 0.143463 -0.433160  0.889826
			 0.161240 -0.646615  0.745581
			 0.052789 -0.591051  0.804905
			-0.016912 -0.546113  0.837541
			 0.007796 -0.562579 -0.826707
			 0.075297 -0.689433 -0.720426
			-0.017643 -0.568175 -0.822718
			-0.060499 -0.620097 -0.782189
			-0.010731 -0.761048 -0.648606
			 0.035385 -0.634058 -0.772475
			 0.089167 -0.675556 -0.731897
			 0.103579 -0.698023 -0.708545
			 0.044959 -0.887082 -0.459417
			 0.148665 -0.816900 -0.557291
			 0.090538 -0.859241 -0.503495
			 0.223526 -0.790855 -0.569723
			 0.107821  0.967529  0.228609
			 0.056473  0.896678  0.439066
			 0.156095  0.964592  0.212597
			 0.059990 -0.133594 -0.989219
			 0.108282 -0.305522 -0.946008
			 0.129305 -0.608907 -0.782632
			-0.011129  0.411891 -0.911165
			 0.449269  0.266379 -0.852760
			-0.066095  0.137457 -0.988300
			 0.423876 -0.045502 -0.904577
			-0.041348 -0.129854 -0.990671
			 0.031281 -0.201944 -0.978897
			 0.015679  0.722810 -0.690869
			 0.083634  0.933561 -0.348525
			 0.792944  0.604419  0.076931
			 0.186879 -0.807107 -0.560048
			 0.333793 -0.836572 -0.434431
			 0.302946 -0.912232 -0.275782
			 0.091294 -0.847218 -0.523343
			-0.016187 -0.964996 -0.261764
			 0.076995 -0.970433 -0.228761
			 0.168594 -0.917605 -0.359969
			-0.878813  0.236189 -0.414611
			-0.939651  0.053815 -0.337876
			-0.960598 -0.077818 -0.266824
			-0.562863 -0.661602 -0.495448
			-0.970687 -0.145940 -0.190966
			-0.972525 -0.184999 -0.141320
			-0.973279 -0.148708 -0.174970
			-0.971228 -0.156263 -0.179715
			-0.968546 -0.198579 -0.149952
			-0.953468 -0.156550 -0.257666
			-0.960800 -0.178836 -0.211851
			 0.309732  0.075666  0.947808
			 0.287354 -0.142399  0.947180
			 0.245297 -0.541621  0.804037
			 0.266001 -0.384536  0.883954
			 0.334021  0.285348  0.898336
			 0.333018  0.414662  0.846850
			 0.287064  0.536210  0.793771
			 0.238475  0.599680  0.763881
			 0.257594  0.696368  0.669863
			 0.177776  0.827060  0.533262
			 0.042423 -0.326088  0.944387
			-0.091103 -0.526860  0.845055
			-0.093655 -0.476324  0.874268
			-0.766270 -0.437108  0.470922
			-0.965336 -0.037790 -0.258261
			-0.963837 -0.094000 -0.249363
			-0.957666 -0.122730 -0.260410
			 0.116068 -0.301276  0.946447
			 0.163020 -0.450645  0.877692
			 0.042888 -0.675089  0.736488
			 0.213123 -0.759529  0.614569
			 0.260020 -0.769531  0.583276
			 0.151493 -0.761524  0.630183
			 0.142847 -0.706317  0.693333
			 0.128716 -0.713058  0.689188
			 0.071484 -0.778579  0.623461
			 0.098625 -0.812303  0.574836
			 0.078635 -0.800558  0.594074
			 0.069163 -0.765377  0.639855
			 0.092954 -0.720900  0.686777
			 0.076655 -0.814414  0.575199
			 0.208325 -0.686199  0.696945
			 0.193701 -0.765409  0.613701
			 0.183999 -0.744165  0.642154
			 0.075895 -0.770747 -0.632605
			 0.145937 -0.859930 -0.489104
			 0.169105 -0.829338 -0.532543
			 0.115564 -0.861392 -0.494619
			-0.013382 -0.740873 -0.671512
			-0.062508 -0.874217 -0.481496
			-0.006854 -0.893987 -0.448041
			 0.117965 -0.843052 -0.524736
			 0.121481 -0.968987 -0.215191
			 0.191787 -0.909612 -0.368544
			-0.035680 -0.963928 -0.263760
			-0.050412 -0.921591 -0.384875
			 0.229430 -0.851548 -0.471411
			 0.192973 -0.967835 -0.161421
			 0.258263 -0.962410 -0.084063
			 0.007967 -0.881429 -0.472249
			 0.227463 -0.839989 -0.492625
			 0.191577  0.908526  0.371320
			 0.371212  0.865236  0.336999
			 0.430855  0.884466  0.179119
			 0.200794  0.896225  0.395554
			 0.100065 -0.359638 -0.927711
			 0.172743 -0.563714 -0.807705
			 0.153032 -0.786093 -0.598864
			 0.627360  0.520396 -0.579317
			 0.110873 -0.278563 -0.953997
			 0.604689 -0.314250 -0.731845
			 0.077020 -0.385413 -0.919524
			 0.347079  0.886486 -0.306069
			 0.611209  0.610894  0.503221
			 0.955257  0.176858 -0.237076
			-0.021162 -0.997133 -0.072651
			-0.131415 -0.955906 -0.262629
			-0.000137 -0.998031 -0.062727
			 0.159106 -0.986419 -0.040769
			 0.193391 -0.960487 -0.200161
			-0.761476 -0.475869 -0.440116
			-0.628296 -0.687558 -0.364016
			-0.939799  0.204327 -0.273912
			-0.959441  0.034267 -0.279819
			-0.967775 -0.061539 -0.244181
			-0.965224 -0.131110 -0.226170
			-0.967843 -0.155410 -0.197806
			-0.967100 -0.090705 -0.237676
			 0.345130 -0.046423  0.937406
			 0.344295  0.103557  0.933133
			 0.280719 -0.353430  0.892347
			 0.298156 -0.489976  0.819162
			 0.218889 -0.695828  0.684040
			 0.278412 -0.746157  0.604761
			 0.320206  0.241843  0.915959
			 0.292005  0.379605  0.877857
			 0.248820  0.659827  0.709025
			 0.238818  0.812068  0.532457
			 0.023103 -0.458268  0.888514
			-0.149569 -0.606474  0.780909
			-0.107068 -0.589357  0.800746
			-0.798739 -0.495695  0.341032
			-0.963483 -0.035655 -0.265385
			-0.962632 -0.062353 -0.263536
			-0.168304 -0.708255  0.685601
			-0.132158 -0.782710  0.608194
			-0.024335 -0.817258  0.575758
			 0.114188 -0.852486  0.510127
			 0.244902 -0.824064  0.510824
			 0.214163 -0.864827  0.454101
			 0.109421 -0.844152  0.524819
			 0.146660 -0.819712  0.553681
			 0.130080 -0.806808  0.576315
			 0.159265 -0.800558  0.577704
			 0.129015 -0.824871  0.550402
			 0.070936 -0.892600  0.445233
			 0.112862 -0.912927  0.392207
			 0.156796 -0.926230  0.342803
			 0.207307 -0.959170  0.192399
			 0.133513 -0.918393  0.372462
			 0.114799 -0.839043  0.531816
			 0.164619 -0.846980  0.505495
			 0.181289 -0.779956  0.599002
			 0.266299 -0.781467  0.564264
			 0.232521 -0.820928  0.521547
			 0.124094 -0.956957 -0.262364
			 0.242035 -0.922565 -0.300486
			 0.182039 -0.928594 -0.323381
			 0.128910 -0.979190 -0.156745
			 0.134478 -0.955429 -0.262815
			-0.001036 -0.872640 -0.488364
			-0.018502 -0.965200 -0.260858
			-0.014950 -0.947202 -0.320288
			 0.176674 -0.984066 -0.020020
			 0.037381 -0.997296  0.063272
			-0.082020 -0.983878  0.158924
			-0.155368 -0.920095 -0.359564
			 0.144217 -0.983099  0.112773
			 0.190368 -0.939002  0.286420
			 0.082924 -0.995588 -0.043900
			 0.244557 -0.857252  0.453113
			 0.308982  0.770113  0.558082
			 0.164342 -0.727432 -0.666209
			 0.190876 -0.888754 -0.416753
			 0.085769 -0.954810 -0.284574
			 0.412823 -0.788643 -0.455653
			 0.854434 -0.519403 -0.012787
			 0.619750  0.058318  0.782629
			 0.264647  0.257762  0.929258
			 0.648483 -0.514253  0.561260
			 0.716248 -0.349118  0.604240
			 0.034941 -0.996589  0.074762
			-0.085950 -0.989392  0.117114
			-0.075252 -0.992001  0.101345
			 0.079611 -0.986054  0.146150
			 0.201225 -0.971281  0.126973
			-0.735007 -0.670305  0.102249
			-0.978081 -0.045574 -0.203174
			-0.953364  0.042276 -0.298846
			-0.961523 -0.010363 -0.274529
			 0.220481 -0.122281  0.967696
			 0.196378  0.054989  0.978985
			 0.148620 -0.846054  0.511962
			 0.117514 -0.833641  0.539660
			 0.238673 -0.810558  0.534818
			 0.290344 -0.820356  0.492663
			-0.176555 -0.682466  0.709273
			-0.697546 -0.598253  0.394364
			-0.964402  0.017565 -0.263858
			-0.165672 -0.775617  0.609074
			-0.101594 -0.853496  0.511100
			-0.025520 -0.903451  0.427930
			 0.193766 -0.895360  0.400980
			 0.169677 -0.934801  0.312022
			 0.029906 -0.936851  0.348448
			 0.117073 -0.894657  0.431141
			 0.115303 -0.976629  0.181384
			 0.145266 -0.952342  0.268219
			 0.233100 -0.972382 -0.011753
			 0.248301 -0.959223 -0.135048
			 0.160363 -0.986842 -0.020667
			 0.118035 -0.924799  0.361682
			 0.220123 -0.908656  0.354809
			 0.131835 -0.958155  0.254084
			 0.273595 -0.872356  0.405143
			 0.015479 -0.988714 -0.149013
			 0.124545 -0.990870  0.051629
			 0.084966 -0.996107 -0.023509
			 0.193468 -0.957353  0.214584
			 0.160509 -0.838030 -0.521480
			 0.209418 -0.977208 -0.034774
			 0.157783 -0.986069 -0.052655
			 0.357243 -0.932801 -0.047530
			 0.184901 -0.981529  0.049126
			 0.172635 -0.969355 -0.174778
			 0.126654 -0.925828  0.356091
			-0.047579 -0.957105  0.285809
			-0.057074 -0.959454  0.276027
			 0.145469 -0.942334  0.301407
			-0.423011 -0.859238  0.287700
			-0.792813 -0.596885  0.123188
			 0.167865 -0.862468  0.477463
			 0.252317 -0.851946  0.458830
			 0.244597 -0.899611  0.361762
			-0.085114 -0.784128  0.614735
			-0.138293 -0.914437  0.380369
			 0.184673 -0.965876  0.181605
			 0.172240 -0.940879  0.291684
		</DataArray>
	</PointData>
	<Points>
		<DataArray type="Float32" NumberOfComponents="3" format="ascii">
			 0.004910  0.002080 -0.001145
			 0.005515  0.001763 -0.000494
			 0.005993  0.001500 -0.000940
			 0.005817  0.001430 -0.001457
			 0.004634  0.002259 -0.000743
			 0.004482  0.002469 -0.001368
			 0.004738  0.002296 -0.001910
			 0.004944  0.002010 -0.000202
			 0.005156  0.001789 -0.001897
			 0.005245  0.001782  0.000338
			 0.006202  0.001591 -0.000130
			 0.006263  0.001371 -0.001113
			 0.006627  0.001512 -0.000510
			 0.006003  0.001260 -0.001966
			 0.005439  0.001592 -0.002274
			 0.004103  0.002723 -0.000998
			 0.003905  0.002635 -0.000303
			 0.003854  0.003095 -0.001281
			 0.004416  0.002749 -0.001812
			 0.005032  0.002103 -0.002307
			 0.004375  0.002160  0.000286
			 0.006035  0.001625  0.000423
			 0.004505  0.001807  0.001008
			 0.005220  0.001608  0.000961
			 0.006817  0.001614  0.000110
			 0.006694  0.001014 -0.002232
			 0.006864  0.001128 -0.001629
			 0.007469  0.001156 -0.001560
			 0.007159  0.001513 -0.000623
			 0.006419  0.001084 -0.002386
			 0.006137  0.001193 -0.002613
			 0.005626  0.001769 -0.002882
			 0.002913  0.003466 -0.000338
			 0.003241  0.002855  0.000374
			 0.003979  0.002225  0.000681
			 0.002565  0.004191 -0.000838
			 0.004023  0.003299 -0.001806
			 0.004486  0.003081 -0.002292
			 0.005082  0.002327 -0.002667
			 0.006871  0.001545  0.000769
			 0.006081  0.001463  0.001049
			 0.004060  0.001770  0.001418
			 0.004799  0.001497  0.001372
			 0.006297  0.001301  0.001324
			 0.007324  0.001672  0.000393
			 0.007406  0.001700 -0.000034
			 0.007505  0.000767 -0.002537
			 0.007568  0.000682 -0.002875
			 0.007665  0.000868 -0.002171
			 0.008391  0.001367 -0.001544
			 0.008191  0.001605 -0.001044
			 0.008182  0.001040 -0.001919
			 0.007836  0.001680 -0.000620
			 0.007937  0.001799 -0.000301
			 0.006282  0.001236 -0.002959
			 0.006672  0.000999 -0.002876
			 0.006479  0.001315 -0.003346
			 0.005729  0.001923 -0.003157
			 0.002518  0.003650 -0.000055
			 0.002593  0.003247  0.000527
			 0.003586  0.002209  0.001157
			 0.001853  0.004317 -0.000216
			 0.001631  0.004988 -0.000607
			 0.003949  0.003834 -0.002155
			 0.004604  0.003403 -0.002645
			 0.005499  0.002615 -0.003303
			 0.007508  0.001600  0.000794
			 0.006782  0.001450  0.001015
			 0.002932  0.001965  0.001914
			 0.003866  0.001387  0.001957
			 0.004730  0.001165  0.001848
			 0.006287  0.001071  0.001608
			 0.007518  0.001142  0.001337
			 0.007550  0.001398  0.001096
			 0.007855  0.001780  0.000465
			 0.007806  0.000645 -0.002503
			 0.007585  0.000638 -0.003396
			 0.007402  0.000730 -0.003089
			 0.007846  0.000421 -0.002975
			 0.008800  0.001223 -0.001867
			 0.009698  0.001615 -0.001843
			 0.009600  0.001994 -0.001407
			 0.008920  0.001911 -0.001088
			 0.008858  0.002116 -0.000447
			 0.008556  0.000842 -0.002151
			 0.008219  0.001928  0.000139
			 0.007077  0.000922 -0.003353
			 0.007117  0.001026 -0.003635
			 0.006785  0.001481 -0.003844
			 0.006052  0.002173 -0.003628
			 0.002078  0.003905  0.000043
			 0.002859  0.002498  0.001394
			 0.001206  0.004754 -0.000106
			 0.000759  0.004642  0.000284
			 0.001335  0.003941  0.000631
			-0.001844  0.004967 -0.000346
			 0.000329  0.005107  0.000207
			 0.000759  0.004642  0.000284
			-0.000535  0.002098 -0.002464
			-0.000761  0.003007 -0.001931
			 0.008389  0.001575  0.000958
			 0.001444  0.002856  0.001969
			 0.001558  0.002432  0.002294
			 0.002410  0.001847  0.002299
			 0.003375  0.001171  0.002331
			 0.004493  0.000869  0.002150
			 0.005861  0.000678  0.001974
			 0.006967  0.000463  0.001819
			 0.007275  0.000885  0.001544
			 0.008414  0.001174  0.001264
			 0.008462  0.000797  0.001448
			 0.008328  0.001796  0.000648
			 0.008582  0.000450 -0.002357
			 0.008031  0.000234 -0.002576
			 0.007547  0.000212 -0.003660
			 0.007591 -0.000096 -0.003155
			 0.007452  0.000845 -0.003796
			 0.007563  0.000395 -0.003988
			 0.007843 -0.000304 -0.002715
			 0.008970  0.000874 -0.002183
			 0.010738  0.002260 -0.001626
			 0.011505  0.001847 -0.002152
			 0.010257  0.001350 -0.002158
			 0.011539  0.002233 -0.001960
			 0.010662  0.002546 -0.001130
			 0.009793  0.002354 -0.000841
			 0.009313  0.002268 -0.000130
			 0.008771  0.002044  0.000294
			 0.007172  0.001314 -0.004091
			 0.007265 -0.000262 -0.004322
			 0.006934 -0.000606 -0.004248
			 0.006494 -0.000927 -0.004291
			-0.000382  0.001342 -0.003068
			 0.001590  0.003138  0.001534
			 0.000773  0.004343  0.000611
			 0.000356  0.004538  0.000812
			-0.001577  0.004579  0.000210
			-0.001952  0.005110  0.000530
			-0.001450  0.004427 -0.000387
			-0.000061  0.004956  0.000977
			-0.000926  0.003526 -0.001323
			-0.001139  0.003960 -0.000793
			 0.000147  0.004821  0.000822
			-0.000545  0.002314 -0.001780
			-0.000331  0.001404 -0.002349
			-0.000408  0.001790 -0.001951
			-0.000786  0.003177 -0.001131
			-0.000618  0.002642 -0.001163
			 0.009698  0.001155  0.001364
			 0.009681  0.001537  0.001155
			 0.009088  0.001876  0.000723
			 0.000654  0.002769  0.002571
			 0.000057  0.003433  0.002397
			 0.000552  0.003610  0.001886
			 0.000613  0.002338  0.002850
			 0.000195  0.002070  0.003146
			 0.001957  0.001598  0.002643
			 0.003218  0.000868  0.002533
			 0.004545  0.000551  0.002318
			 0.005549  0.000316  0.002187
			 0.006266  0.000140  0.002075
			 0.007239 -0.000095  0.001869
			 0.007845  0.000284  0.001701
			 0.009606  0.000801  0.001510
			 0.008933  0.000329  0.001591
			 0.009272  0.000765 -0.002266
			 0.008507  0.000047 -0.002497
			 0.007286 -0.000249 -0.003745
			 0.007347 -0.000586 -0.003017
			 0.007016 -0.000585 -0.003622
			 0.007485  0.000993 -0.004274
			 0.007613  0.000730 -0.004356
			 0.007392 -0.000075 -0.004348
			 0.007582  0.000377 -0.004378
			 0.007332 -0.000870 -0.002773
			 0.008458 -0.000392 -0.002512
			 0.007818 -0.000827 -0.002571
			 0.011665  0.002527 -0.001796