<?xml version="1.0"?>
<VTKFile type="PolyData" version="0.1" byte_order="LittleEndian" compressor="vtkZLibDataCompressor">
	<PolyData>
		<Piece NumberOfPoints="267" NumberOfVerts="0" NumberOfLines="0" NumberOfStrips="0" NumberOfPolys="530">
		<PointData Normals="Normals">
		<DataArray type="Float32" Name="Normals" NumberOfComponents="3" format="ascii">
			 0.000708 -0.997209 -0.074664
			 0.024901 -0.970027 -0.241718
			-0.162801 -0.920529 -0.355136
			-0.205531 -0.975068 -0.083665
			-0.079259 -0.991467  0.103499
			 0.224161 -0.971289 -0.079681
			-0.151793 -0.927898  0.340535
			 0.015522 -0.893215 -0.449363
			 0.173994 -0.943584 -0.281736
			-0.234960 -0.920708 -0.311594
			-0.148540 -0.784924 -0.601523
			-0.119718 -0.746508 -0.654517
			-0.144606 -0.976053 -0.162511
			-0.146858 -0.985632  0.083438
			-0.127703 -0.946847  0.295250
			 0.003176 -0.973231  0.229808
			-0.087735 -0.943610  0.319222
			-0.792509 -0.542701  0.278218
			-0.448656 -0.862671 -0.233468
			-0.242746 -0.830456  0.501415
			-0.358056 -0.448297  0.819039
			-0.361623 -0.205977  0.909287
			 0.052124 -0.810650 -0.583206
			 0.161368 -0.852401 -0.497366
			-0.131666 -0.882606 -0.451299
			 0.000201 -0.585342 -0.810787
			-0.030278 -0.727319 -0.685631
			-0.113621 -0.639181 -0.760617
			-0.151298 -0.465003 -0.872285
			-0.088795 -0.543991 -0.834380
			 0.064988 -0.719080 -0.691882
			 0.010696 -0.995547 -0.093660
			 0.000286 -0.878061 -0.478549
			-0.034251 -0.968982  0.244748
			-0.090370 -0.844041  0.528610
			-0.004456 -0.799229  0.601010
			-0.584432  0.416395  0.696458
			-0.588646  0.758594  0.279340
			-0.901652  0.229985 -0.366237
			-0.997088 -0.053163  0.054672
			-0.364171 -0.689202 -0.626402
			-0.789978  0.184233 -0.584802
			-0.083629 -0.667096  0.740263
			-0.046085 -0.280478  0.958754
			 0.033241 -0.515330  0.856347
			-0.046726 -0.004083  0.998899
			 0.004078  0.047084  0.998883
			-0.103570  0.205566  0.973147
			-0.331468  0.320982  0.887186
			 0.061698 -0.259321 -0.963819
			 0.046857 -0.515778 -0.855440
			-0.017177 -0.477548 -0.878438
			 0.077914 -0.664183 -0.743498
			-0.110794 -0.071738 -0.991251
			-0.062751 -0.255809 -0.964688
			-0.136928 -0.254004 -0.957461
			-0.017891 -0.342819 -0.939231
			 0.070493 -0.576430 -0.814100
			 0.130107 -0.918872 -0.372487
			 0.199886 -0.965961 -0.164211
			 0.201292 -0.976123  0.081646
			 0.164472 -0.760021 -0.628742
			 0.087033 -0.921575  0.378318
			 0.013027 -0.816749  0.576847
			-0.080977 -0.668447  0.739339
			-0.078845 -0.577646  0.812471
			-0.142801  0.771074  0.620526
			-0.179610  0.839434  0.512924
			-0.150475  0.648641  0.746071
			-0.011080  0.999704 -0.021643
			-0.155477  0.983525  0.092221
			-0.106477  0.950958  0.290415
			-0.669605  0.740037 -0.063038
			-0.032085  0.530183 -0.847276
			-0.218265  0.798122 -0.561570
			-0.531764 -0.478420 -0.698814
			-0.071324  0.264046 -0.961869
			-0.090501 -0.005934 -0.995879
			-0.442803 -0.171598 -0.880045
			-0.101736 -0.081655  0.991455
			-0.037023 -0.385622  0.921914
			-0.101107  0.081419  0.991538
			-0.097536  0.216762  0.971340
			 0.022995  0.159017  0.987008
			 0.013624  0.235629  0.971748
			-0.080771  0.488820  0.868637
			 0.051116  0.087636 -0.994840
			 0.083860 -0.086047 -0.992755
			 0.011312  0.075732 -0.997064
			 0.078694 -0.274415 -0.958386
			 0.106104 -0.482276 -0.869570
			 0.221784 -0.590628 -0.775868
			-0.019114  0.320708 -0.946985
			-0.100039  0.081105 -0.991672
			-0.092555 -0.033665 -0.995138
			 0.269020 -0.869818 -0.413576
			 0.351833 -0.920050 -0.172398
			 0.365803 -0.930685  0.003762
			 0.334702 -0.927874  0.164391
			 0.272854 -0.910908  0.309511
			 0.292457 -0.706906 -0.644013
			 0.243395 -0.824989  0.510051
			 0.084292 -0.689634  0.719236
			-0.215706  0.793751  0.568709
			-0.196396  0.902500  0.383304
			-0.163965  0.672231  0.721956
			-0.177155  0.974448 -0.138085
			 0.028417  0.938707 -0.343543
			-0.027526  0.977441 -0.209410
			-0.314503  0.905137  0.286034
			-0.306036  0.952016  0.002773
			-0.007939  0.474797 -0.880059
			-0.002310  0.612972 -0.790101
			 0.048677  0.753873 -0.655215
			 0.051572  0.881235 -0.469857
			-0.098351  0.143505  0.984750
			-0.045751 -0.034126  0.998370
			 0.177220 -0.520860  0.835044
			 0.095810 -0.190622  0.976977
			-0.124408  0.293847  0.947722
			-0.100795  0.392355  0.914274
			-0.013272  0.358633  0.933384
			-0.103473  0.537335  0.836997
			 0.078846  0.035441 -0.996257
			 0.012601  0.270861 -0.962536
			 0.010315 -0.025300 -0.999627
			 0.083549 -0.300957 -0.949971
			 0.193685 -0.438864 -0.877431
			 0.274873 -0.512408 -0.813562
			 0.313641 -0.626684 -0.713370
			 0.369948 -0.797013 -0.477397
			 0.405307 -0.846260 -0.345791
			 0.389216 -0.910171 -0.141774
			 0.380889 -0.919600  0.096230
			 0.382164 -0.875715  0.295083
			 0.355157 -0.823502  0.442389
			 0.275866 -0.710378  0.647504
			-0.243344  0.820575  0.517146
			-0.103530  0.726975  0.678814
			-0.315528  0.932659 -0.174899
			-0.185873  0.894945 -0.405616
			-0.040881  0.834825 -0.548996
			-0.254721  0.935392  0.245274
			-0.310300  0.950619  0.006074
			-0.079776  0.587780 -0.805078
			-0.088783  0.407785 -0.908752
			-0.026285  0.713612 -0.700048
			-0.029284  0.268282  0.962895
			 0.039269  0.079824  0.996035
			 0.244217 -0.456816  0.855381
			 0.130916 -0.272188  0.953297
			-0.058463  0.411365  0.909594
			-0.062290  0.574829  0.815899
			-0.047944  0.174974 -0.983405
			 0.049255 -0.101012 -0.993665
			 0.154822 -0.244343 -0.957250
			 0.199143 -0.316034 -0.927612
			 0.191753 -0.456872 -0.868619
			 0.199674 -0.607864 -0.768526
			 0.297870 -0.738921 -0.604375
			 0.290872 -0.846084 -0.446694
			 0.234837 -0.937912 -0.255291
			 0.242770 -0.968888  0.048152
			 0.335263 -0.903415  0.267282
			 0.266822 -0.832965  0.484742
			 0.223295 -0.607023  0.762668
			-0.097943  0.867756  0.487243
			-0.148784  0.954539  0.258298
			-0.012657  0.816273  0.577527
			-0.004171  0.944945  0.327203
			-0.243186  0.926676 -0.286589
			-0.182402  0.827179 -0.531512
			-0.138582  0.747795 -0.649305
			-0.112055  0.992327 -0.052268
			-0.155392  0.719950 -0.676406
			-0.146005  0.561164 -0.814726
			-0.056700  0.293117 -0.954394
			-0.078799  0.491654 -0.867218
			-0.022041  0.287123  0.957640
			-0.011885  0.420466  0.907230
			 0.001906 -0.058714  0.998273
			 0.073582 -0.573874  0.815631
			-0.015783  0.532485  0.846292
			-0.011663  0.705077  0.709035
			 0.053349  0.035126 -0.997958
			 0.092554 -0.021265 -0.995481
			 0.097849 -0.228160 -0.968694
			 0.055851 -0.371185 -0.926878
			 0.068581 -0.532354 -0.843739
			 0.068925 -0.718918 -0.691669
			 0.130430 -0.852175 -0.506741
			 0.000849 -0.936066 -0.351824
			-0.013005 -0.996518 -0.082351
			 0.159470 -0.948615  0.273312
			-0.042150 -0.986114  0.160632
			 0.087555 -0.871004  0.483411
			 0.002209  0.948646  0.316333
			-0.005363  0.869058  0.494682
			-0.023956  0.997306  0.069329
			-0.111158  0.924652 -0.364229
			-0.107195  0.876016 -0.470218
			-0.049039  0.973184 -0.224742
			-0.127186  0.797440 -0.589841
			-0.121097  0.678702 -0.724361
			 0.019475  0.267908 -0.963248
			-0.054448  0.632808 -0.772392
			-0.019741  0.446042 -0.894794
			-0.078221  0.308956  0.947854
			-0.046136  0.432795  0.900311
			-0.034278  0.509832  0.859591
			-0.086229  0.132566  0.987416
			-0.020501  0.615606  0.787787
			-0.102990 -0.206000  0.973117
			-0.044670 -0.677757  0.733927
			-0.017924  0.830966  0.556034
			 0.011767  0.234778 -0.971978
			-0.000828  0.015053 -0.999886
			-0.015600 -0.212714 -0.976990
			-0.082557 -0.363335 -0.927993
			-0.100074 -0.544817 -0.832562
			 0.002811 -0.721657 -0.692245
			-0.043152 -0.808932 -0.586317
			-0.243458 -0.947010 -0.209522
			-0.136734 -0.863568 -0.485340
			-0.021366 -0.998332  0.053633
			-0.036725 -0.941427  0.335210
			-0.041402 -0.936910  0.347111
			-0.089818 -0.858632  0.504662
			-0.011854  0.950958  0.309094
			-0.078516  0.985681  0.149224
			-0.092051  0.994540 -0.049170
			-0.054252  0.991164 -0.121040
			-0.082658  0.861021 -0.501807
			-0.071546  0.942053 -0.327745
			-0.078501  0.772143 -0.630582
			-0.053697  0.736957 -0.673804
			-0.022704  0.566400 -0.823818
			 0.007470  0.300052 -0.953894
			 0.018381  0.521991  0.852753
			 0.095148  0.468604  0.878270
			-0.080506  0.139833  0.986897
			-0.149213  0.089781  0.984721
			-0.028584  0.595509  0.802840
			-0.044426  0.721112  0.691392
			-0.127567 -0.121436  0.984368
			-0.148819 -0.546883  0.823876
			-0.052632  0.878355  0.475102
			-0.048008  0.942559  0.330572
			-0.104326 -0.107984 -0.988664
			 0.781341 -0.239978 -0.576123
			 0.387417 -0.871143 -0.301693
			 0.435406 -0.709965  0.553509
			-0.084229 -0.682022  0.726465
			 0.515266  0.851405  0.098031
			-0.036814  0.977020 -0.209946
			-0.088659  0.956950 -0.276380
			-0.073700  0.862833 -0.500088
			-0.070166  0.734288 -0.675202
			 0.453042  0.583076 -0.674370
			 0.332880  0.169067 -0.927689
			 0.172366  0.763754  0.622069
			 0.661755  0.396879  0.636056
			 0.829212  0.010685  0.558832
			-0.042973 -0.194249  0.980010
			-0.116546 -0.261713  0.958083
			 0.313512  0.839847 -0.443134
			 0.992065  0.125232 -0.011144
		</DataArray>
	</PointData>
	<Points>
		<DataArray type="Float32" NumberOfComponents="3" format="ascii">
			 0.001150 -0.001915 -0.000026
			 0.001134 -0.001842 -0.000480
			 0.001524 -0.001778 -0.000825
			 0.001948 -0.002020 -0.000189
			 0.001326 -0.001913  0.000316
			 0.000659 -0.001981  0.000018
			 0.000765 -0.001926  0.000621
			 0.001030 -0.001696 -0.000861
			 0.000718 -0.001900 -0.000367
			 0.002100 -0.001980 -0.000708
			 0.002220 -0.001667 -0.001317
			 0.001309 -0.001242 -0.001581
			 0.002735 -0.002183 -0.000431
			 0.002685 -0.002168  0.000145
			 0.002525 -0.002012  0.000780
			 0.001153 -0.001844  0.000808
			 0.001852 -0.001894  0.000835
			 0.000128 -0.002167  0.000220
			 0.000119 -0.002136 -0.000262
			 0.001095 -0.001685  0.001289
			 0.001248 -0.000880  0.002120
			 0.001046 -0.000354  0.002232
			 0.000840 -0.001527 -0.001142
			 0.000427 -0.001746 -0.000942
			 0.002673 -0.002044 -0.000872
			 0.002438 -0.001071 -0.001912
			 0.002991 -0.001734 -0.001341
			 0.001855 -0.001160 -0.001789
			 0.001510 -0.000720 -0.002055
			 0.000989 -0.000793 -0.001893
			 0.000682 -0.001255 -0.001500
			 0.003385 -0.002260 -0.000275
			 0.003278 -0.002067 -0.000925
			 0.003376 -0.002180  0.000555
			 0.002710 -0.001731  0.001397
			 0.001769 -0.001538  0.001584
			 0.000214  0.001344  0.001476
			-0.000094  0.002112  0.000183
			-0.000135  0.001417 -0.001668
			 0.000000  0.000000  0.000000
			-0.000018 -0.001558 -0.001372
			 0.000024  0.000598 -0.002080
			 0.001458 -0.001302  0.001904
			 0.002389 -0.000761  0.002139
			 0.001878 -0.001045  0.002022
			 0.002815 -0.000277  0.002252
			 0.001588  0.000061  0.002247
			 0.001261  0.000350  0.002223
			 0.000710  0.000764  0.001980
			 0.002605 -0.000370 -0.002240
			 0.003094 -0.001049 -0.001902
			 0.002233 -0.000771 -0.002100
			 0.003805 -0.001592 -0.001458
			 0.001629 -0.000037 -0.002278
			 0.001917 -0.000390 -0.002253
			 0.001229 -0.000326 -0.002162
			 0.000652 -0.000417 -0.002057
			 0.000267 -0.001091 -0.001696
			 0.003906 -0.002069 -0.000824
			 0.003973 -0.002177 -0.000370
			 0.004018 -0.002193  0.000154
			 0.004082 -0.001801 -0.001206
			 0.003889 -0.002043  0.000941
			 0.003669 -0.001714  0.001568
			 0.003489 -0.001432  0.001874
			 0.003036 -0.001169  0.002020
			 0.000979  0.001612  0.001361
			 0.000484  0.001764  0.001064
			 0.000918  0.001263  0.001702
			 0.001097  0.002137 -0.000183
			 0.001457  0.002161  0.000142
			 0.001056  0.002034  0.000620
			-0.000127  0.002167 -0.000219
			 0.000580  0.001319 -0.001802
			 0.000061  0.001887 -0.001328
			 0.000018 -0.000859 -0.001887
			 0.000789  0.000735 -0.002086
			 0.000183  0.000127 -0.002157
			-0.000058 -0.000422 -0.002077
			 0.003980 -0.000502  0.002349
			 0.004048 -0.000901  0.002280
			 0.003693 -0.000164  0.002334
			 0.003439  0.000296  0.002216
			 0.002572  0.000351  0.002188
			 0.001979  0.000421  0.002216
			 0.001438  0.001059  0.001934
			 0.002662  0.000264 -0.002257
			 0.002954 -0.000105 -0.002263
			 0.002158  0.000150 -0.002312
			 0.003296 -0.000496 -0.002129
			 0.003978 -0.001000 -0.001856
			 0.004738 -0.001121 -0.001636
			 0.001760  0.000637 -0.002175
			 0.001298  0.000349 -0.002232
			 0.000826  0.000145 -0.002180
			 0.004436 -0.001938 -0.000840
			 0.004775 -0.001940 -0.000436
			 0.004682 -0.001996 -0.000011
			 0.004530 -0.002019  0.000369
			 0.004375 -0.001897  0.001030
			 0.004955 -0.001385 -0.001336
			 0.004503 -0.001592  0.001570
			 0.004059 -0.001358  0.001965
			 0.002124  0.001974  0.001177
			 0.001836  0.002113  0.000789
			 0.002534  0.001863  0.001430
			 0.001801  0.002199 -0.000388
			 0.001216  0.002043 -0.000883
			 0.000434  0.002166 -0.000758
			 0.002457  0.002358  0.000684
			 0.002299  0.002372  0.000164
			 0.002730  0.001010 -0.001968
			 0.001942  0.001376 -0.001732
			 0.000831  0.001735 -0.001448
			 0.000542  0.002057 -0.001074
			 0.004084  0.000146  0.002347
			 0.004371 -0.000245  0.002422
			 0.004792 -0.000886  0.002233
			 0.004734 -0.000447  0.002389
			 0.003888  0.000837  0.002153
			 0.003506  0.001288  0.001926
			 0.002472  0.000948  0.002018
			 0.002803  0.001546  0.001724
			 0.003345  0.000184 -0.002222
			 0.003356  0.000602 -0.002137
			 0.003799  0.000061 -0.002215
			 0.004166 -0.000368 -0.002122
			 0.004948 -0.000588 -0.001917
			 0.005359 -0.000695 -0.001727
			 0.005892 -0.000795 -0.001424
			 0.005033 -0.001643 -0.000961
			 0.005482 -0.001510 -0.000746
			 0.005709 -0.001495 -0.000362
			 0.005912 -0.001433  0.000170
			 0.004934 -0.001747  0.000825
			 0.005228 -0.001291  0.001546
			 0.004844 -0.001198  0.001907
			 0.003253  0.002492  0.001009
			 0.003906  0.002432  0.001275
			 0.002561  0.002430 -0.000307
			 0.002084  0.002127 -0.000793
			 0.001741  0.001847 -0.001228
			 0.003265  0.002691  0.000588
			 0.003215  0.002746  0.000173
			 0.002984  0.001507 -0.001682
			 0.003634  0.001081 -0.001973
			 0.001890  0.001632 -0.001502
			 0.004482  0.000519  0.002298
			 0.005119  0.000185  0.002357
			 0.005253 -0.000578  0.002260
			 0.005688 -0.000227  0.002283
			 0.004350  0.001358  0.001994
			 0.004111  0.002125  0.001555
			 0.004527  0.000733 -0.002181
			 0.004648  0.000176 -0.002211
			 0.005135 -0.000021 -0.002106
			 0.005906  0.000212 -0.002021
			 0.006381  0.000025 -0.001817
			 0.006412 -0.000445 -0.001525
			 0.006252 -0.000895 -0.001135
			 0.006259 -0.001118 -0.000836
			 0.006444 -0.001175 -0.000549
			 0.006436 -0.001254  0.000211
			 0.005752 -0.001367  0.000820
			 0.005676 -0.001084  0.001588
			 0.005477 -0.000820  0.002042
			 0.003907  0.002704  0.000924
			 0.003821  0.002822  0.000577
			 0.004679  0.002594  0.001123
			 0.004556  0.002823  0.000683
			 0.003254  0.002665 -0.000376
			 0.003234  0.002388 -0.000922
			 0.002629  0.001952 -0.001260
			 0.003783  0.002861  0.000040
			 0.003512  0.002202 -0.001207
			 0.003684  0.001802 -0.001593
			 0.005092  0.001242 -0.002093
			 0.005148  0.001767 -0.001869
			 0.005888  0.000995  0.002146
			 0.005278  0.001313  0.002033
			 0.006030  0.000041  0.002325
			 0.006021 -0.000606  0.002112
			 0.004917  0.001907  0.001718
			 0.005187  0.002374  0.001361
			 0.005216  0.000654 -0.002207
			 0.006244  0.001004 -0.002091
			 0.006552  0.000632 -0.002020
			 0.007030  0.000420 -0.001906
			 0.006886 -0.000219 -0.001592
			 0.007103 -0.000636 -0.001192
			 0.006919 -0.000903 -0.000878
			 0.006985 -0.001097 -0.000504
			 0.006959 -0.001162 -0.000007
			 0.006471 -0.001123  0.000973
			 0.006935 -0.001122  0.000815
			 0.006280 -0.000887  0.001695
			 0.005129  0.002823  0.000623
			 0.005583  0.002703  0.000949
			 0.005535  0.002897  0.000212
			 0.003901  0.002723 -0.000502
			 0.004103  0.002603 -0.000803
			 0.004513  0.002827 -0.000288
			 0.004119  0.002459 -0.001029
			 0.004487  0.002099 -0.001524
			 0.005705  0.001246 -0.002103
			 0.005961  0.002193 -0.001607
			 0.006826  0.001876 -0.001842
			 0.007007  0.000878  0.002248
			 0.006578  0.001410  0.002018
			 0.006222  0.001852  0.001779
			 0.006514  0.000524  0.002286
			 0.005956  0.002210  0.001531
			 0.006905 -0.000169  0.002344
			 0.006610 -0.000537  0.002154
			 0.006292  0.002588  0.001137
			 0.006527  0.001465 -0.002007
			 0.007350  0.001252 -0.002037
			 0.007385  0.000774 -0.002004
			 0.007508  0.000255 -0.001853
			 0.007716 -0.000061 -0.001713
			 0.008052 -0.000439 -0.001523
			 0.007466 -0.000857 -0.000955
			 0.007607 -0.001233 -0.000190
			 0.007626 -0.001087 -0.000656
			 0.007819 -0.001367  0.000235
			 0.006870 -0.000970  0.001370
			 0.007663 -0.001134  0.001387
			 0.007112 -0.000727  0.001936
			 0.006421  0.002827  0.000660
			 0.007282  0.002951  0.000203
			 0.007254  0.002974 -0.000220
			 0.005875  0.002903 -0.000235
			 0.005579  0.002615 -0.001065
			 0.005779  0.002808 -0.000668
			 0.005755  0.002426 -0.001356
			 0.006667  0.002481 -0.001372
			 0.007584  0.002145 -0.001723
			 0.007931  0.001573 -0.002011
			 0.007683  0.001852  0.001847
			 0.008103  0.001229  0.002205
			 0.007661  0.000398  0.002459
			 0.007131  0.000291  0.002395
			 0.007293  0.002140  0.001639
			 0.007026  0.002431  0.001355
			 0.007450 -0.000014  0.002451
			 0.007263 -0.000552  0.002245
			 0.007415  0.002712  0.000996
			 0.007344  0.002877  0.000579
			 0.007982  0.000830 -0.002074
			 0.008487  0.000161 -0.001987
			 0.007969 -0.001380 -0.000298
			 0.008503 -0.000559  0.002409
			 0.008022 -0.000665  0.002295
			 0.008138  0.003099  0.000075
			 0.007851  0.003004 -0.000606
			 0.007315  0.002903 -0.000730
			 0.006976  0.002752 -0.001007
			 0.007305  0.002484 -0.001425
			 0.008071  0.002521 -0.001458
			 0.008435  0.001077 -0.002150
			 0.007822  0.002648  0.001186
			 0.008466  0.000719  0.002397
			 0.008535  0.000175  0.002517
			 0.008186 -0.000173  0.002530
			 0.007764 -0.000355  0.002434
			 0.008096  0.002846 -0.001070
			 0.008476  0.000440  0.000205
		</DataArray>
	</Points>
			<Polys>
				<DataArray type="Int32" Name="connectivity" format="ascii">
					0 1 2 
					3 0 2 
					4 0 3 
					5 0 6 
					6 0 4 
					1 0 5 
					1 7 2 
					7 1 8 
					1 5 8 
					9 3 2 
					10 9 2 
					11 10 2 
					7 11 2 
					9 12 3 
					12 13 3 
					13 4 3 
					13 14 4 
					15 6 4 
					14 16 4 
					16 15 4 
					17 5 6 
					5 18 8 
					17 18 5 
					6 15 19 
					6 20 21 
					19 20 6 
					6 21 17 
					22 7 23 
					7 22 11 
					7 8 23 
					8 18 23 
					24 9 10 
					12 9 24 
					25 26 10 
					26 24 10 
					27 25 10 
					27 10 11 
					28 27 11 
					29 28 11 
					30 29 11 
					22 30 11 
					13 12 31 
					12 32 31 
					12 24 32 
					33 13 31 
					33 14 13 
					14 33 34 
					14 34 16 
					15 16 19 
					16 35 19 
					34 35 16 
					36 17 21 
					36 37 17 
					38 18 17 
					17 39 38 
					39 17 37 
					40 23 18 
					38 41 18 
					18 41 40 
					35 42 19 
					19 42 20 
					20 43 21 
					20 44 43 
					42 44 20 
					45 46 21 
					43 45 21 
					46 47 21 
					47 48 21 
					36 21 48 
					30 22 23 
					40 30 23 
					24 26 32 
					25 49 50 
					25 51 49 
					26 25 50 
					27 51 25 
					26 50 52 
					32 26 52 
					51 27 28 
					53 54 28 
					55 53 28 
					54 51 28 
					29 55 28 
					55 29 56 
					56 29 57 
					29 30 57 
					30 40 57 
					32 58 31 
					59 60 31 
					58 59 31 
					60 33 31 
					58 32 61 
					32 52 61 
					33 60 62 
					34 33 62 
					63 34 62 
					63 64 34 
					34 64 65 
					35 34 65 
					44 35 65 
					42 35 44 
					36 66 67 
					66 36 68 
					36 67 37 
					36 48 68 
					69 37 70 
					37 71 70 
					69 72 37 
					37 67 71 
					72 39 37 
					73 38 74 
					73 41 38 
					74 38 72 
					39 72 38 
					40 75 57 
					40 41 75 
					41 73 76 
					77 41 76 
					78 41 77 
					41 78 75 
					79 43 80 
					43 65 80 
					43 79 45 
					44 65 43 
					81 82 45 
					79 81 45 
					82 83 45 
					83 46 45 
					83 84 46 
					84 47 46 
					84 85 47 
					47 85 48 
					85 68 48 
					86 87 49 
					86 49 88 
					87 89 49 
					49 89 50 
					49 54 88 
					51 54 49 
					50 89 90 
					50 90 52 
					90 91 52 
					52 91 61 
					53 92 88 
					92 53 93 
					54 53 88 
					53 55 93 
					93 55 94 
					55 56 94 
					56 77 94 
					56 78 77 
					75 56 57 
					78 56 75 
					95 58 61 
					59 58 95 
					59 95 96 
					60 59 96 
					97 98 60 
					97 60 96 
					98 99 60 
					60 99 62 
					91 100 61 
					100 95 61 
					62 99 101 
					63 62 101 
					102 63 101 
					64 63 102 
					64 102 80 
					65 64 80 
					66 103 104 
					66 68 103 
					67 66 104 
					71 67 104 
					68 105 103 
					68 85 105 
					106 69 70 
					106 107 69 
					107 108 69 
					108 72 69 
					109 110 70 
					104 109 70 
					110 106 70 
					71 104 70 
					108 74 72 
					111 73 112 
					111 92 73 
					73 113 112 
					113 73 74 
					73 92 76 
					108 114 74 
					114 113 74 
					92 93 76 
					76 93 94 
					77 76 94 
					115 81 79 
					116 115 79 
					116 79 80 
					117 118 80 
					118 116 80 
					102 117 80 
					81 115 82 
					82 115 119 
					120 82 119 
					82 120 121 
					83 82 121 
					84 83 121 
					85 84 121 
					85 122 105 
					122 85 121 
					123 86 124 
					86 123 87 
					124 86 88 
					87 123 89 
					92 124 88 
					89 123 125 
					89 125 126 
					90 89 126 
					127 90 126 
					127 91 90 
					91 128 129 
					127 128 91 
					91 129 100 
					92 111 124 
					95 100 130 
					96 95 130 
					131 132 96 
					132 97 96 
					131 96 130 
					97 132 133 
					98 97 133 
					134 98 133 
					98 134 99 
					99 134 101 
					100 129 130 
					135 136 101 
					134 135 101 
					136 102 101 
					102 136 117 
					137 109 103 
					105 137 103 
					103 109 104 
					137 105 138 
					105 122 138 
					139 106 110 
					106 139 140 
					107 106 140 
					141 107 140 
					113 107 141 
					113 114 107 
					114 108 107 
					137 142 109 
					142 143 109 
					143 110 109 
					143 139 110 
					144 111 112 
					111 144 145 
					124 111 145 
					146 144 112 
					113 146 112 
					146 113 141 
					147 115 148 
					119 115 147 
					115 116 148 
					148 116 118 
					136 149 117 
					149 118 117 
					150 148 118 
					149 150 118 
					151 119 147 
					151 120 119 
					120 151 152 
					122 120 152 
					120 122 121 
					122 152 138 
					123 124 125 
					153 124 145 
					124 153 125 
					153 154 125 
					125 154 126 
					154 155 126 
					155 127 126 
					128 127 156 
					156 127 155 
					128 156 157 
					128 157 129 
					157 158 129 
					129 159 130 
					129 158 159 
					159 131 130 
					131 160 132 
					131 159 160 
					132 161 162 
					132 162 133 
					160 161 132 
					133 162 163 
					134 133 163 
					135 134 163 
					164 135 163 
					135 164 136 
					164 165 136 
					165 149 136 
					166 167 137 
					166 137 138 
					167 142 137 
					168 169 138 
					152 168 138 
					169 166 138 
					139 143 170 
					139 170 140 
					170 171 140 
					171 172 140 
					172 141 140 
					172 146 141 
					142 167 173 
					143 142 173 
					170 143 173 
					144 174 175 
					172 174 144 
					144 175 145 
					172 144 146 
					176 145 177 
					176 153 145 
					145 175 177 
					178 147 148 
					179 147 178 
					179 151 147 
					180 178 148 
					150 180 148 
					149 165 150 
					180 150 181 
					150 165 181 
					179 182 151 
					151 182 152 
					183 168 152 
					182 183 152 
					153 176 184 
					154 153 184 
					155 154 184 
					156 155 185 
					155 184 185 
					186 156 185 
					157 156 186 
					187 157 186 
					157 187 188 
					158 157 188 
					159 158 189 
					158 188 189 
					160 159 189 
					190 160 189 
					190 161 160 
					190 191 161 
					191 192 161 
					161 192 162 
					193 162 194 
					162 192 194 
					162 193 163 
					193 164 163 
					164 193 195 
					164 195 181 
					165 164 181 
					167 166 169 
					167 169 173 
					196 168 197 
					197 168 183 
					168 196 169 
					169 196 198 
					169 198 173 
					199 170 173 
					199 171 170 
					171 199 200 
					174 171 200 
					174 172 171 
					198 201 173 
					201 199 173 
					202 174 200 
					174 202 203 
					175 174 203 
					175 203 177 
					204 176 177 
					176 204 184 
					205 206 177 
					203 205 177 
					206 204 177 
					207 208 178 
					208 209 178 
					209 179 178 
					210 207 178 
					180 210 178 
					179 209 211 
					182 179 211 
					180 181 212 
					210 180 212 
					181 213 212 
					195 213 181 
					183 182 211 
					197 183 214 
					183 211 214 
					184 204 185 
					215 216 185 
					216 186 185 
					204 215 185 
					217 186 216 
					217 187 186 
					187 217 218 
					188 187 218 
					219 188 218 
					189 188 219 
					189 219 220 
					221 190 189 
					221 189 220 
					190 221 191 
					191 222 192 
					191 221 223 
					222 191 223 
					192 224 194 
					192 222 224 
					225 193 194 
					193 225 195 
					226 225 194 
					224 226 194 
					195 225 227 
					213 195 227 
					196 228 198 
					228 196 197 
					228 197 214 
					229 230 198 
					228 229 198 
					230 231 198 
					231 201 198 
					199 201 200 
					232 200 233 
					200 201 233 
					232 202 200 
					201 231 233 
					234 202 232 
					202 234 203 
					234 205 203 
					215 204 206 
					205 235 236 
					205 234 235 
					206 205 236 
					237 215 206 
					236 237 206 
					238 207 239 
					239 207 240 
					208 207 238 
					207 241 240 
					210 241 207 
					242 208 238 
					208 242 209 
					242 243 209 
					209 243 211 
					241 210 212 
					211 243 214 
					244 241 212 
					245 244 212 
					213 245 212 
					245 213 227 
					246 247 214 
					243 246 214 
					247 228 214 
					215 237 216 
					216 237 248 
					217 216 248 
					218 217 248 
					249 218 248 
					249 219 218 
					219 249 220 
					250 223 220 
					221 220 223 
					220 249 250 
					222 250 224 
					222 223 250 
					251 226 224 
					251 224 250 
					225 226 227 
					226 252 227 
					251 252 226 
					252 245 227 
					228 247 229 
					229 247 253 
					230 229 253 
					254 230 253 
					230 254 255 
					231 230 255 
					231 255 233 
					256 232 233 
					234 232 256 
					255 256 233 
					234 256 235 
					256 257 235 
					235 257 236 
					257 258 236 
					237 236 258 
					237 259 248 
					259 237 258 
					238 260 242 
					238 239 260 
					261 239 240 
					260 239 261 
					262 261 240 
					263 262 240 
					264 263 240 
					244 264 240 
					241 244 240 
					242 260 243 
					243 260 246 
					244 245 264 
					264 245 252 
					260 247 246 
					260 253 247 
					248 259 249 
					262 250 249 
					253 249 265 
					258 265 249 
					249 259 258 
					249 266 262 
					253 266 249 
					262 251 250 
					251 263 252 
					251 262 263 
					263 264 252 
					253 260 261 
					254 253 265 
					253 261 266 
					254 265 255 
					265 256 255 
					257 256 265 
					258 257 265 
					266 261 262 
				</DataArray>
				<DataArray type="Int32" Name="offsets" format="ascii">