<?xml version="1.0"?>
<VTKFile type="PolyData" version="0.1" byte_order="LittleEndian" compressor="vtkZLibDataCompressor">
	<PolyData>
		<Piece NumberOfPoints="835" NumberOfVerts="0" NumberOfLines="0" NumberOfStrips="0" NumberOfPolys="1665">
		<PointData Normals="Normals">
		<DataArray type="Float32" Name="Normals" NumberOfComponents="3" format="ascii">
			 0.305370 -0.437448 -0.845806
			 0.777265 -0.182730 -0.602054
			 0.729795  0.100100 -0.676298
			 0.408970 -0.091461 -0.907953
			 0.265853 -0.616531 -0.741088
			 0.168552 -0.195048 -0.966202
			 0.135692 -0.429941 -0.892602
			 0.874810  0.017397 -0.484154
			 0.526185 -0.515027 -0.676666
			 0.884669 -0.103234 -0.454647
			 0.361795  0.219020 -0.906165
			 0.511533  0.088410 -0.854703
			 0.008708  0.197945 -0.980174
			 0.344010 -0.758445 -0.553551
			 0.092695 -0.630713 -0.770460
			 0.183296 -0.740762 -0.646277
			 0.106422 -0.672320 -0.732571
			 0.062333  0.053869 -0.996601
			 0.076062 -0.126384 -0.989061
			 0.087631 -0.403132 -0.910936
			 0.502119 -0.312604 -0.806322
			 0.719342 -0.360044 -0.594067
			 0.688579 -0.538455 -0.485720
			 0.793425 -0.257117 -0.551696
			 0.898829 -0.196021 -0.392022
			 0.118790 -0.060070 -0.991101
			-0.223306  0.140443 -0.964578
			-0.295564  0.190831 -0.936069
			-0.162345  0.301858 -0.939429
			-0.032267  0.245067 -0.968969
			 0.450556 -0.865945 -0.217115
			 0.269294 -0.957327 -0.104910
			 0.201925 -0.839198 -0.504948
			 0.120741 -0.350901 -0.928596
			 0.043052 -0.554941 -0.830775
			 0.035692 -0.728363 -0.684262
			 0.007827 -0.692687 -0.721195
			-0.020506  0.207730 -0.977971
			 0.026704  0.083844 -0.996121
			 0.021002 -0.143713 -0.989397
			 0.324407 -0.285106 -0.901929
			 0.477534 -0.379258 -0.792543
			 0.593917 -0.419055 -0.686772
			 0.849149 -0.502684 -0.162032
			 0.658149 -0.573364 -0.487949
			 0.818300 -0.438365 -0.371781
			 0.954121 -0.264183 -0.140924
			-0.278762 -0.052224 -0.958939
			 0.025143 -0.265675 -0.963735
			-0.427289  0.021987 -0.903848
			-0.398628  0.066149 -0.914724
			-0.335515  0.211141 -0.918068
			-0.092289  0.351975 -0.931448
			-0.230872  0.380494 -0.895501
			-0.121439  0.432462 -0.893437
			 0.706768 -0.696991  0.121171
			 0.445291 -0.845525  0.294625
			 0.220733 -0.916324  0.334107
			 0.079495 -0.945347  0.316226
			 0.109661 -0.975533 -0.190553
			 0.025105 -0.877249 -0.479380
			-0.085479 -0.223546 -0.970938
			-0.154058 -0.588829 -0.793439
			-0.073916 -0.759048 -0.646825
			-0.038550  0.347522 -0.936879
			 0.031742  0.271580 -0.961892
			-0.016267  0.034147 -0.999284
			-0.029051 -0.040842 -0.998743
			 0.251158 -0.409319 -0.877142
			 0.414811 -0.552984 -0.722593
			 0.904711 -0.345505  0.249246
			 0.499380 -0.687265 -0.527528
			 0.501070 -0.836194 -0.222957
			 0.693182 -0.689919 -0.208595
			 0.805970 -0.578006 -0.127757
			 0.900488 -0.420220  0.111965
			-0.168905 -0.256105 -0.951778
			-0.414665 -0.124562 -0.901409
			-0.439074 -0.172803 -0.881676
			-0.440672 -0.070746 -0.894876
			-0.371106 -0.034307 -0.927956
			-0.394709  0.088925 -0.914493
			-0.368511  0.303516 -0.878680
			-0.423727  0.179030 -0.887921
			-0.093210  0.504043 -0.858634
			-0.076369  0.531928 -0.843339
			-0.137112  0.543504 -0.828133
			-0.330883  0.495859 -0.802895
			-0.061412  0.562396 -0.824584
			 0.661461 -0.565254  0.492907
			 0.448148 -0.642118  0.621971
			 0.275434 -0.785844  0.553701
			 0.159316 -0.857922  0.488456
			 0.007615 -0.997177  0.074701
			 0.136987 -0.789129  0.598757
			 0.021357 -0.862397  0.505783
			-0.168069 -0.983514 -0.066725
			-0.149222 -0.857376 -0.492584
			-0.206748 -0.313947 -0.926657
			-0.039890  0.045898 -0.998149
			-0.179141 -0.051505 -0.982474
			-0.237202 -0.578414 -0.780495
			-0.276445 -0.775371 -0.567784
			-0.258269 -0.693736 -0.672330
			-0.295654 -0.836465 -0.461427
			 0.016366  0.468563 -0.883279
			 0.036025  0.212753 -0.976442
			 0.028476 -0.443149 -0.895996
			 0.173907 -0.583480 -0.793289
			 0.320861 -0.748205 -0.580722
			 0.698222 -0.584503  0.413329
			 0.688165 -0.421028  0.590902
			 0.346133 -0.889304 -0.298882
			 0.325651 -0.940115  0.100672
			 0.445223 -0.885772  0.131094
			 0.600355 -0.787293  0.140512
			 0.752955 -0.647177  0.119253
			-0.306424 -0.298844 -0.903768
			-0.440236 -0.309726 -0.842770
			-0.362599 -0.088382 -0.927745
			-0.339131 -0.197412 -0.919793
			-0.411875 -0.310569 -0.856683
			-0.499049 -0.395806 -0.770900
			-0.322192  0.036717 -0.945962
			-0.395220  0.161856 -0.904214
			-0.454969  0.406330 -0.792401
			-0.466820  0.284682 -0.837279
			-0.441098  0.273086 -0.854901
			-0.056437  0.701115 -0.710811
			-0.048846  0.797661 -0.601124
			-0.019045  0.655315 -0.755116
			-0.232149  0.653373 -0.720562
			-0.110192  0.751375 -0.650610
			-0.053707  0.676897 -0.734116
			-0.497615  0.558161 -0.663954
			-0.404066  0.705770 -0.581911
			 0.564295 -0.437841  0.699905
			 0.441195 -0.501500  0.744208
			 0.244973 -0.628549  0.738183
			-0.105637 -0.889555  0.444447
			 0.153589 -0.574803  0.803749
			 0.116160 -0.666312  0.736570
			-0.074839 -0.683900  0.725727
			-0.292043 -0.934448 -0.203758
			-0.227768 -0.889514  0.396090
			-0.110666  0.156308 -0.981489
			-0.019657  0.261340 -0.965047
			-0.218948 -0.199396 -0.955146
			-0.114814  0.051629 -0.992045
			-0.410022 -0.599225 -0.687613
			-0.516106 -0.764163 -0.386897
			-0.492144 -0.708038 -0.506435
			-0.361536 -0.851774 -0.379175
			 0.024905  0.543076 -0.839314
			-0.010202  0.695187 -0.718757
			-0.178621 -0.534351 -0.826174
			 0.067856 -0.755252 -0.651912
			 0.087433 -0.921905 -0.377420
			 0.568226 -0.681342  0.461401
			 0.638706 -0.459236  0.617379
			 0.590052 -0.342896  0.730931
			 0.143214 -0.986362 -0.081122
			 0.142645 -0.972136  0.186022
			 0.268100 -0.897994  0.348897
			 0.422231 -0.799148  0.427881
			-0.382177 -0.614066 -0.690553
			-0.508084 -0.468660 -0.722640
			-0.393251 -0.399280 -0.828209
			-0.280824 -0.264879 -0.922484
			-0.242617 -0.005967 -0.970104
			-0.478930 -0.436098 -0.761869
			-0.563965 -0.667128 -0.486708
			-0.303994  0.201283 -0.931167
			-0.533781  0.363118 -0.763691
			-0.281561  0.335176 -0.899100
			-0.288650  0.454619 -0.842617
			-0.482866  0.459414 -0.745506
			-0.008598  0.838003 -0.545598
			 0.042529  0.898535 -0.436837
			-0.024183  0.837227 -0.546320
			 0.069596  0.948140 -0.310142
			 0.028547  0.970113 -0.240969
			 0.003052  0.844932 -0.534865
			-0.212232  0.867631 -0.449638
			-0.042993  0.926986 -0.372623
			-0.519403  0.776544 -0.356651
			-0.555022  0.678955 -0.480595
			-0.405148  0.879401 -0.250020
			 0.497465 -0.405629  0.766808
			 0.365199 -0.402022  0.839648
			 0.193330 -0.356562  0.914050
			 0.115179 -0.394292  0.911739
			-0.243636 -0.812935  0.528941
			-0.161686 -0.482712  0.860725
			 0.010191 -0.318393  0.947904
			-0.312267 -0.939951  0.137775
			 0.016238  0.349184 -0.936913
			-0.015576  0.270681 -0.962543
			 0.070880  0.435682 -0.897305
			-0.163866 -0.442627 -0.881606
			-0.266691 -0.309192 -0.912840
			-0.198502 -0.379188 -0.903777
			-0.276608 -0.293544 -0.915052
			-0.014583  0.057105 -0.998262
			 0.074327  0.260371 -0.962643
			-0.324718 -0.496069 -0.805279
			-0.558231 -0.686135 -0.466473
			-0.433656 -0.568884 -0.698795
			-0.552461 -0.671904 -0.493286
			-0.531541 -0.740927 -0.410478
			-0.496510 -0.865748  0.062916
			 0.111167  0.569872 -0.814179
			 0.051855  0.787088 -0.614657
			-0.155576 -0.786967 -0.597058
			-0.076811 -0.980301 -0.181962
			-0.188467 -0.891811 -0.411283
			 0.540423 -0.601476  0.588361
			 0.553818 -0.446504  0.702794
			 0.511095 -0.345953  0.786828
			 0.475985 -0.221501  0.851103
			 0.457506 -0.290851  0.840294
			-0.006970 -0.999434  0.032915
			-0.049468 -0.971485  0.231883
			 0.114666 -0.909644  0.399250
			 0.263324 -0.812982  0.519346
			 0.408884 -0.616220  0.673118
			-0.513428 -0.708848 -0.483658
			-0.344218 -0.863664 -0.368236
			-0.333833 -0.536615 -0.774984
			-0.435188 -0.617615 -0.655106
			-0.168006  0.039051 -0.985012
			-0.267270 -0.353676 -0.896370
			-0.207498 -0.078282 -0.975098
			-0.214995  0.153995 -0.964398
			-0.476097 -0.876874 -0.066504
			-0.411964 -0.848256 -0.332788
			-0.439463 -0.897943 -0.023882
			-0.170592  0.254615 -0.951877
			-0.132688  0.416949 -0.899192
			-0.216065  0.625577 -0.749646
			-0.082876  0.561798 -0.823113
			-0.345462  0.729714 -0.590062
			 0.095628  0.957615 -0.271714
			 0.190520  0.981680  0.002498
			 0.168532  0.979189  0.113076
			 0.187213  0.968501  0.164187
			 0.086156  0.946423 -0.311226
			-0.245742  0.964989 -0.091685
			-0.075453  0.993696 -0.082913
			 0.049051  0.994641 -0.091015
			-0.462091  0.879760 -0.111773
			-0.458268  0.879686 -0.127057
			-0.296617  0.922671 -0.246365
			-0.363869  0.926402  0.096846
			 0.390942 -0.155126  0.907249
			 0.245753 -0.112559  0.962775
			 0.143107 -0.105412  0.984078
			 0.135985 -0.092152  0.986416
			 0.126146 -0.092840  0.987658
			-0.313713 -0.802114  0.508130
			 0.055937 -0.115983  0.991675
			-0.153201 -0.426957  0.891200
			-0.394222 -0.686527  0.610958
			-0.000941 -0.207878  0.978154
			 0.015099  0.419909 -0.907441
			-0.056063  0.037282 -0.997731
			 0.128561  0.230059 -0.964648
			 0.157503  0.369192 -0.915909
			 0.165754  0.470927 -0.866460
			-0.632636 -0.575762 -0.517948
			-0.510577 -0.679091 -0.527396
			-0.168501 -0.377566 -0.910523
			-0.553939 -0.790447 -0.261430
			-0.629518 -0.714125 -0.306159
			-0.597284 -0.797647  0.083727
			 0.158467  0.780298 -0.604999
			 0.010812  0.691623 -0.722177
			 0.091756  0.907286 -0.410382
			 0.175446  0.911568 -0.371836
			-0.272407 -0.958616 -0.082765
			 0.384992 -0.442812  0.809752
			 0.386237 -0.249387  0.888047
			 0.330173 -0.085603  0.940031
			 0.359641 -0.047191  0.931897
			-0.072185 -0.902321  0.424978
			-0.267117 -0.922389  0.279009
			-0.255386 -0.954628  0.153179
			 0.084088 -0.829895  0.551546
			 0.230918 -0.749704  0.620178
			 0.222093 -0.647209  0.729243
			-0.297012 -0.537411 -0.789287
			-0.303111 -0.661331 -0.686123
			-0.331867 -0.823057 -0.460914
			-0.100338  0.222582 -0.969737
			-0.230640 -0.133692 -0.963811
			-0.284891 -0.373228 -0.882915
			-0.141242  0.197394 -0.970096
			-0.314120 -0.943631 -0.104352
			-0.280024 -0.942324  0.183334
			-0.041795  0.449628 -0.892238
			-0.108020  0.751640 -0.650668
			-0.030638  0.684441 -0.728424
			-0.037755  0.516029 -0.855739
			-0.084451  0.875285 -0.476177
			 0.158594  0.983178  0.090601
			 0.228150  0.877807  0.421192
			 0.314618  0.799780  0.511241
			 0.219833  0.813415  0.538545
			 0.288537  0.838596  0.462064
			 0.247445  0.968396  0.031309
			-0.142555  0.964425  0.222626
			 0.064801  0.965101  0.253734
			-0.325779  0.932434  0.156314
			-0.338675  0.895929  0.287422
			-0.009563  0.983516 -0.180569
			-0.124494  0.962137  0.242475
			-0.183071  0.876437  0.445358
			 0.325944  0.023071  0.945108
			 0.146619  0.050761  0.987890
			 0.166702  0.120036  0.978673
			 0.172851  0.108905  0.978909
			 0.063737 -0.011365  0.997902
			-0.404605 -0.699677  0.588852
			-0.369056 -0.647747  0.666500
			-0.106648 -0.259986  0.959705
			 0.002717 -0.145312  0.989382
			 0.099749  0.591889 -0.799824
			-0.150863  0.006172 -0.988535
			 0.185033  0.129371 -0.974180
			 0.246896  0.467273 -0.848940
			 0.311897  0.327952 -0.891722
			 0.234416  0.561224 -0.793774
			 0.310177  0.714468 -0.627157
			 0.353881  0.850763 -0.388548
			-0.760602 -0.591505 -0.267593
			-0.699958 -0.646879 -0.302666
			-0.511432 -0.489018 -0.706611
			-0.686641 -0.455618 -0.566513
			-0.422678 -0.286854 -0.859685
			-0.287084 -0.007673 -0.957875
			-0.453554 -0.867613  0.203804
			-0.671547 -0.732621  0.110863
			-0.707911 -0.705056  0.041932
			 0.217014  0.971842 -0.091806
			 0.213913  0.801106 -0.558991
			 0.086764  0.889442 -0.448737
			 0.229221 -0.419370  0.878400
			 0.226219 -0.128165  0.965608
			 0.270142  0.078871  0.959585
			 0.272057  0.069808  0.959746
			 0.253064  0.058397  0.965685
			 0.304416  0.006965  0.952514
			 0.349696  0.090632  0.932469
			-0.107161 -0.845874  0.522507
			-0.199470 -0.915272  0.349984
			 0.075276 -0.726173  0.683379
			-0.291613 -0.719812 -0.629947
			-0.269903 -0.566656 -0.778494
			-0.262211 -0.842359 -0.470826
			-0.247944 -0.964783 -0.087848
			-0.276584 -0.949068 -0.150900
			-0.089870  0.360974 -0.928235
			-0.134028  0.004060 -0.990969
			-0.227598 -0.261624 -0.937951
			-0.067289  0.313965 -0.947047
			-0.222728 -0.969820  0.099202
			-0.177766 -0.952437  0.247512
			-0.048889  0.825176 -0.562755
			-0.053727  0.749964 -0.659293
			-0.077477  0.512589 -0.855131
			-0.085808  0.957844 -0.274173
			 0.145598  0.825306  0.545592
			 0.237644  0.723772  0.647826
			 0.348850  0.647191  0.677825
			 0.406757  0.475299  0.780154
			 0.246284  0.572697  0.781897
			 0.164356  0.680080  0.714478
			 0.259038  0.648060  0.716183
			 0.322290  0.707025  0.629480
			 0.351307  0.851234  0.389851
			 0.008413  0.890166  0.455559
			-0.211341  0.843489  0.493823
			-0.218758  0.767317  0.602801
			 0.043522  0.995096  0.088820
			 0.097361  0.966679  0.236753
			 0.030253  0.840966  0.540241
			-0.105028  0.755596  0.646563
			 0.044219  0.755737  0.653381
			 0.339345  0.130205  0.931607
			 0.201942  0.159274  0.966360
			 0.172974  0.217537  0.960603
			 0.216675  0.208141  0.953797
			 0.223705  0.325437  0.918720
			 0.218353  0.251734  0.942842
			 0.178658  0.237875  0.954723
			-0.071386 -0.183296  0.980462
			 0.113480  0.080635  0.990263
			-0.252621 -0.421647  0.870860
			-0.611374 -0.620733  0.490829
			 0.334904  0.860493 -0.383916
			-0.267797 -0.298331 -0.916124
			-0.023310 -0.060648 -0.997887
			-0.001565 -0.054666 -0.998503
			 0.236961  0.090746 -0.967272
			 0.361736  0.206063 -0.909222
			 0.374056  0.575016 -0.727626
			 0.458069  0.810174 -0.365775
			 0.370008  0.409141 -0.834085
			 0.459483  0.473276 -0.751588
			 0.430712  0.375592 -0.820620
			 0.380916  0.913563 -0.142497
			 0.469464  0.868789 -0.157507
			 0.426698  0.835681  0.345784
			 0.465798  0.881336  0.079239
			 0.479059  0.874226 -0.078939
			-0.750684 -0.660206 -0.024522
			-0.757835 -0.638064  0.136233
			-0.792336 -0.599738 -0.111884
			-0.768255 -0.558651 -0.312558
			-0.542044 -0.394390 -0.742055
			-0.674684 -0.476481 -0.563709
			 0.328037  0.815748  0.476389
			 0.328682  0.926034  0.185554
			 0.306074  0.939914 -0.151266
			 0.047064 -0.667462  0.743155
			 0.101287 -0.487312  0.867334
			 0.074747 -0.384056  0.920279
			 0.127492 -0.144226  0.981297
			 0.236514  0.118268  0.964403
			 0.227351  0.160740  0.960455
			 0.191900  0.113719  0.974804
			 0.151277  0.143399  0.978035
			 0.213123  0.186929  0.958977
			 0.320275  0.262173  0.910323
			 0.398350  0.280907  0.873160
			-0.024110 -0.719275  0.694307
			-0.097255 -0.844120  0.527260
			-0.150815 -0.919521  0.362955
			-0.234750 -0.920839 -0.311365
			-0.281157 -0.817910 -0.501970
			-0.238583 -0.768547 -0.593645
			-0.162239 -0.660056 -0.733488
			-0.101593 -0.458844 -0.882690
			-0.192501 -0.969701 -0.150409
			-0.185884 -0.944268  0.271672
			-0.156097 -0.971940  0.175973
			-0.078159  0.213272 -0.973862
			-0.030945 -0.029380 -0.999089
			 0.035136 -0.255788 -0.966094
			-0.113495 -0.253237 -0.960723
			-0.123995  0.879151 -0.460129
			-0.043453  0.852097 -0.521577
			-0.020516  0.707225 -0.706690
			-0.025198  0.375661 -0.926414
			-0.103651  0.978695  0.177237
			-0.184748  0.972193 -0.143906
			-0.118288  0.935640 -0.332545
			 0.184862  0.632120  0.752496
			 0.281038  0.608054  0.742488
			 0.314447  0.458964  0.830948
			 0.307103  0.416043  0.855918
			 0.213393  0.443672  0.870413
			 0.269437  0.497413  0.824611
			 0.324222  0.576748  0.749828
			-0.087861  0.704049  0.704696
			-0.043751  0.594616  0.802819
			 0.099731  0.890254  0.444412
			 0.157955  0.705880  0.690495
			 0.094938  0.617677  0.780680
			 0.245497  0.247227  0.937342
			 0.250576  0.356319  0.900138
			 0.299381  0.503714  0.810335
			 0.265733  0.436168  0.859734
			 0.256608  0.253822  0.932591
			 0.272052  0.457957  0.846323
			-0.327149 -0.427827  0.842578
			-0.149430 -0.241251  0.958889
			-0.026353 -0.125965  0.991685
			 0.068264 -0.029415  0.997234
			 0.226565  0.164301  0.960038
			-0.568533 -0.621255  0.539271
			-0.728260 -0.648759  0.220793
			-0.312806 -0.267385 -0.911404
			-0.342946 -0.238848 -0.908482
			 0.017656 -0.058384 -0.998138
			 0.357641  0.078660 -0.930541
			 0.415690  0.142376 -0.898293
			 0.588149  0.220039 -0.778244
			 0.526012  0.391759 -0.754875
			 0.577347  0.698789 -0.422332
			 0.607077  0.742317 -0.283590
			 0.534015  0.826476  0.178231
			 0.481048  0.843549  0.238785
			 0.537452  0.575279 -0.616604
			 0.420444  0.845449  0.329307
			 0.474680  0.877495  0.068422
			 0.458584  0.673091  0.580214
			 0.311559  0.692114  0.651083
			 0.365237  0.596110  0.715021
			-0.720368 -0.548766  0.424176
			-0.548247 -0.510988  0.662055
			-0.811743 -0.582324 -0.044403
			-0.703669 -0.548976 -0.451082
			-0.768384 -0.601583 -0.218364
			-0.583866 -0.402383 -0.705116
			 0.353425  0.742073  0.569577
			 0.027608 -0.564425  0.825023
			-0.031195 -0.483466  0.874807
			-0.035082 -0.642082  0.765833
			 0.160392 -0.020694  0.986837
			 0.205468  0.053579  0.977196
			 0.043080 -0.271050  0.961601
			 0.256703  0.174020  0.950695
			 0.216435  0.215477  0.952222
			 0.140263  0.161872  0.976793
			 0.078935  0.225824  0.970965
			 0.083767  0.322120  0.942986
			 0.193105  0.344994  0.918526
			-0.087478 -0.780367  0.619172
			-0.145560 -0.847044  0.511203
			-0.127275 -0.988930  0.076280
			-0.230306 -0.962630 -0.142485
			-0.285823 -0.884393 -0.368990
			-0.036368 -0.816468 -0.576245
			-0.175020 -0.901234 -0.396415
			-0.002994 -0.664448 -0.747328
			 0.054708 -0.487897 -0.871185
			-0.116555 -0.888230  0.444367
			-0.057978 -0.924083  0.377769
			-0.036261  0.147903 -0.988337
			 0.076328  0.015208 -0.996967
			 0.233334 -0.449881 -0.862069
			 0.200812 -0.188016 -0.961418
			 0.055991  0.932542 -0.356695
			 0.069461  0.834802 -0.546150
			 0.047470  0.527120 -0.848464
			 0.039833  0.716469 -0.696481
			 0.053446  0.256854 -0.964971
			-0.068855  0.888271  0.454130
			-0.007227  0.912555  0.408890
			-0.035431  0.999371  0.001779
			-0.116277  0.976228 -0.182916
			 0.133185  0.491275  0.860761
			 0.349737  0.587448  0.729787
			-0.006707  0.550360  0.834901
			-0.041233  0.459144  0.887404
			-0.014609  0.779552  0.626167
			 0.148832  0.759111  0.633718
			 0.226817  0.595401  0.770748
			 0.212493  0.488996  0.846008
			 0.325803  0.640042  0.695844
			 0.323312  0.275923  0.905172
			 0.344039  0.428815  0.835317
			-0.247853 -0.268804  0.930759
			 0.004832 -0.077250  0.997000
			 0.176335  0.027471  0.983947
			 0.150657  0.044982  0.987562
			 0.309008  0.197237  0.930383
			-0.575342 -0.427470 -0.697317
			-0.179625 -0.288315 -0.940537
			 0.143949 -0.094443 -0.985068
			 0.414278 -0.015045 -0.910026
			 0.505877  0.102026 -0.856551
			 0.636267  0.121643 -0.761818
			 0.595116  0.145631 -0.790334
			 0.831739  0.169727 -0.528586
			 0.864408  0.332954 -0.376751
			 0.686384  0.377868 -0.621363
			 0.649169  0.688010 -0.324379
			 0.676716  0.498068 -0.542202
			 0.609008  0.782399 -0.130235
			 0.620379  0.758813  0.198324
			 0.416734  0.526889  0.740757
			 0.500251  0.592735  0.631200
			-0.511838 -0.403880  0.758223
			-0.668237 -0.469105  0.577408
			-0.562061 -0.412322  0.716992
			-0.784388 -0.606199  0.131369
			-0.720113 -0.568717 -0.397491
			-0.756668 -0.629791 -0.175548
			-0.122298 -0.683785  0.719361
			 0.042688 -0.529138  0.847461
			-0.092377 -0.726355  0.681084
			 0.233980  0.129887  0.963526
			 0.295957  0.242083  0.924016
			 0.214620  0.100476  0.971516
			 0.147911 -0.057317  0.987338
			 0.103868 -0.151657  0.982961
			 0.115189 -0.245896  0.962428
			 0.303604  0.232432  0.924013
			 0.277617  0.324007  0.904405
			 0.138068  0.276309  0.951100
			 0.048313  0.378679  0.924266
			-0.197763 -0.960760  0.194497
			-0.188944 -0.971679 -0.141916
			 0.005042 -0.944606 -0.328168
			 0.131190 -0.670766 -0.729974
			 0.093239 -0.871949 -0.480637
			 0.009405 -0.782843  0.622148
			 0.053715 -0.768691  0.637361
			-0.063187 -0.848021  0.526182
			 0.096583 -0.007733 -0.995295
			 0.234615 -0.621231 -0.747682
			 0.193385 -0.394491 -0.898320
			 0.240480  0.942141 -0.233537
			 0.168909  0.891448 -0.420463
			 0.063828  0.912558 -0.403936
			 0.021725  0.805121 -0.592713
			 0.079545  0.319038 -0.944398
			 0.056900  0.537021 -0.841648
			 0.034298  0.680943 -0.731533
			 0.003580  0.788767  0.614681
			 0.270639  0.936928  0.221181
			 0.264458  0.761510  0.591747
			 0.040120  0.637129  0.769713
			-0.019837  0.692940  0.720722
			 0.109289  0.471890  0.874857
			 0.254938  0.429607  0.866282
			 0.320685  0.460718  0.827587
			 0.450141  0.349762  0.821608
			 0.389474  0.409635  0.824930
			 0.424599  0.433368  0.794927
			-0.289358 -0.244944  0.925351
			-0.004853 -0.017088  0.999842
			 0.197073  0.065018  0.978231
			 0.321462  0.127763  0.938264
			 0.477336  0.181212  0.859833
			 0.432041  0.274795  0.858969
			-0.438571 -0.435952 -0.785876
			-0.638202 -0.543726 -0.545033
			-0.403602 -0.527158 -0.747803
			 0.010143 -0.291479 -0.956523
			 0.694603  0.114860 -0.710165
			 0.786706  0.094303 -0.610082
			 0.623571 -0.067463 -0.778850
			 0.795759  0.122665 -0.593061
			 0.863858  0.148729 -0.481279
			 0.963508  0.267630 -0.005044
			 0.965154  0.197041 -0.172200
			 0.968322  0.143232 -0.204541
			 0.904461  0.404771 -0.134577
			 0.907539  0.401668  0.122619
			 0.838919  0.542428 -0.044573
			 0.713062  0.699431  0.048361
			 0.626746  0.686144  0.369318
			 0.604729  0.753144  0.258992
			 0.527952  0.522273  0.669700
			-0.392875 -0.245040  0.886343
			-0.735747 -0.544947  0.402130
			-0.464602 -0.310291  0.829376
			-0.660510 -0.601407 -0.449484
			-0.745152 -0.642595 -0.178384
			-0.730485 -0.618331  0.289927
			 0.071859 -0.627564  0.775242
			 0.134828 -0.407588  0.903158
			 0.153044  0.267159  0.951422
			 0.144569  0.095894  0.984837
			 0.145976  0.073682  0.986540
			 0.169841 -0.092726  0.981099
			 0.146176 -0.233411  0.961328
			-0.142873 -0.930194  0.338124
			-0.123101 -0.992351  0.009252
			-0.006267 -0.998398 -0.056237
			-0.004974 -0.965404 -0.260711
			 0.040775 -0.806635 -0.589642
			 0.119758 -0.503629  0.855579
			 0.060537 -0.642774  0.763660
			-0.063723 -0.690234  0.720775
			 0.153582  0.261280 -0.952967
			 0.060838  0.140466 -0.988215
			-0.111738 -0.423619 -0.898922
			-0.146697 -0.204403 -0.967832
			 0.025247 -0.660705 -0.750221
			 0.338899  0.940369 -0.029204
			 0.226756  0.914825 -0.334182
			 0.181504  0.981430 -0.062063
			-0.078700  0.993339 -0.084172
			-0.051194  0.876113 -0.479379
			-0.099292  0.938884 -0.329604
			-0.127714  0.809175 -0.573520
			-0.059119  0.732585 -0.678103
			 0.094518  0.461349 -0.882170
			-0.031048  0.577424 -0.815854
			 0.162424  0.642564  0.748819
			 0.372997  0.809360  0.453663
			 0.373623  0.560138  0.739359
			 0.022655  0.548296  0.835977
			 0.071742  0.394804  0.915960
			 0.555887  0.315854  0.768912
			 0.591780  0.522818  0.613561
			-0.075912 -0.045724  0.996066
			 0.243000  0.090278  0.965816
			 0.340280  0.107706  0.934136
			 0.434354  0.163412  0.885795
			 0.762307  0.296960  0.575067
			 0.579199  0.203292  0.789431
			-0.605717 -0.680954 -0.411592
			-0.307371 -0.692838 -0.652303
			 0.103465 -0.461591 -0.881038
			 0.904335  0.071676 -0.420761
			 0.960321  0.143571 -0.239103
			 0.697551 -0.245214 -0.673270
			 0.981933  0.056865 -0.180482
			 0.941907  0.157016 -0.296914
			 0.966174  0.217998  0.137785
			 0.875501  0.244706  0.416673
			 0.969306  0.173236  0.174454
			 0.930734  0.196691  0.308296
			 0.795090  0.407334  0.449344
			-0.603620 -0.471850  0.642652
			-0.394583 -0.437452  0.808047
			-0.072605 -0.153306  0.985508
			-0.651480 -0.676608  0.343185
			-0.596910 -0.800433 -0.054820
			 0.124024  0.210317  0.969734
			 0.176624  0.085373  0.980569
			 0.097618 -0.361561  0.927224
			 0.138326 -0.132988  0.981417
			-0.153591 -0.810544  0.565180
			-0.099437 -0.989919  0.100863
			-0.170918 -0.909800  0.378221
			-0.063724 -0.977991  0.198680
			-0.025043 -0.993636  0.109817
			-0.031338 -0.999070 -0.029597
			-0.162555 -0.979388 -0.119899
			-0.305702 -0.860018 -0.408553
			-0.264943 -0.682084 -0.681591
			 0.047639 -0.447076  0.893227
			-0.025747 -0.704348  0.709388
			 0.007133  0.353207 -0.935518
			-0.142659  0.091077 -0.985572
			-0.357339 -0.478785 -0.801919
			-0.548684 -0.222726 -0.805815
			 0.092912  0.977455  0.189600
			-0.158733  0.958128  0.238316
			-0.289104  0.957282  0.005516
			-0.446343  0.828550 -0.338056
			-0.708215  0.489069 -0.509159
			-0.188286  0.324687 -0.926891
			 0.094129  0.497523  0.862329
			 0.262218  0.463673  0.846315
			 0.058647  0.887956  0.456175
			 0.187549  0.732486  0.654438
			 0.313254  0.559791  0.767142
			 0.354798  0.391803  0.848887
			 0.149562  0.324203  0.934090
			 0.241037  0.061524  0.968564
			 0.406390  0.143360  0.902383
			 0.481030  0.210491  0.851061
			 0.683674  0.223177  0.694825
			-0.428329 -0.867894 -0.251584
			-0.141242 -0.874760 -0.463515
			 0.261816 -0.689375 -0.675436
			 0.970940  0.136243  0.196759
			 0.916209  0.192818  0.351259
			 0.983149  0.145537  0.110620
			 0.870237 -0.304194 -0.387497
			 0.967567  0.078880  0.239984
			 0.776709  0.134240  0.615388
			 0.834984  0.198472  0.513236
			-0.305128 -0.661372  0.685189
			 0.004431 -0.311103  0.950366
			 0.008169 -0.159820  0.987112
			 0.212271  0.000514  0.977211
			-0.490100 -0.793906  0.359882
			-0.351208 -0.915192  0.197677
			 0.161232  0.064679  0.984795
			 0.131253 -0.207055  0.969485
			-0.030847 -0.889702  0.455498
			-0.008429 -0.960984  0.276476
			-0.178168 -0.983367  0.035303
			-0.134733 -0.963080  0.233074
			-0.346110 -0.921609 -0.175626
			-0.848062 -0.391548 -0.357045
			-0.768046 -0.611675 -0.189630
			 0.092558 -0.505779  0.857684
			 0.077517 -0.680467  0.728667
			 0.057059 -0.810500  0.582953
			-0.679706  0.054089 -0.731487
			-0.120261  0.899753  0.419502
			-0.895605  0.370800  0.245764
			 0.281326  0.326027  0.902531
			-0.014900  0.788857  0.614396
			 0.087995  0.627825  0.773364
			 0.198302  0.384917  0.901396
			 0.278402  0.244311  0.928873
			 0.199139  0.168705  0.965341
			 0.341861  0.034901  0.939102
			 0.671553  0.139589  0.727690
			-0.073412 -0.995857 -0.053669
			 0.096163 -0.931651 -0.350398
			 0.487177 -0.793482 -0.364752
			 0.933831 -0.306165 -0.184995
			 0.903768 -0.304422  0.300884
			 0.724923 -0.226302  0.650595
			 0.555036 -0.060697  0.829609
			 0.351043 -0.023910  0.936054
			-0.011230 -0.583770  0.811842
			-0.064225 -0.773988  0.629934
			 0.152213 -0.417913  0.895645
			-0.042956 -0.944922  0.324464
			 0.145621 -0.022635  0.989081
			 0.176560 -0.055437  0.982727
			 0.100958 -0.368499  0.924130
			 0.016440 -0.893524  0.448715
			-0.076701 -0.886680  0.455978
			-0.392794 -0.909780 -0.134210
			-0.850286 -0.526320 -0.001049
			-0.150831 -0.902815  0.402710
			-0.459107 -0.852877  0.248641
			-0.993699 -0.072484  0.085490
			 0.075524 -0.664247  0.743688
			-0.000550 -0.809471  0.587160
			-0.001623  0.734248  0.678879
			-0.488586  0.490382  0.721671
			-0.790546 -0.455027  0.409863
			-0.705074 -0.169588  0.688557
			 0.064326  0.490703  0.868949
			 0.180146  0.168158  0.969159
			 0.124637  0.249306  0.960371
			 0.227059  0.090332  0.969683
			 0.390202 -0.804298  0.448160
			 0.603098 -0.797075  0.030729
			 0.267786 -0.618866  0.738441
			 0.183632  0.027205  0.982618
			 0.129614 -0.156119  0.979197
			-0.010022 -0.683455  0.729924
			 0.035676 -0.419639  0.906990
			-0.068612 -0.803959  0.590714
			-0.073095 -0.863040  0.499819
			-0.247698  0.221790  0.943109
			 0.006077 -0.593458  0.804842
			-0.476854 -0.579583  0.660828
			 0.069278 -0.278574  0.957913
			 0.055204  0.009350  0.998431
		</DataArray>
	</PointData>
	<Points>
		<DataArray type="Float32" NumberOfComponents="3" format="ascii">
			 0.012761 -0.000865 -0.004435
			 0.012518 -0.001520 -0.004115
			 0.012329 -0.001110 -0.004427
			 0.012091 -0.000726 -0.004738
			 0.013369 -0.001024 -0.004028
			 0.012968 -0.000239 -0.004598
			 0.013101 -0.000387 -0.004529
			 0.012732 -0.001750 -0.004619
			 0.013105 -0.001591 -0.003638
			 0.012752 -0.002128 -0.003870
			 0.011944 -0.001190 -0.004995
			 0.012177 -0.001533 -0.004928
			 0.011496 -0.000571 -0.004848
			 0.013553 -0.001577 -0.003449
			 0.014072 -0.000552 -0.004289
			 0.014021 -0.001111 -0.003787
			 0.014408 -0.000826 -0.004011
			 0.012758  0.000082 -0.004647
			 0.013745 -0.000065 -0.004573
			 0.013651 -0.000335 -0.004551
			 0.012296 -0.001936 -0.004755
			 0.012477 -0.002233 -0.004392
			 0.013230 -0.001914 -0.003183
			 0.012581 -0.002623 -0.004129
			 0.012977 -0.002497 -0.003514
			 0.011752 -0.001681 -0.005057
			 0.011167 -0.001081 -0.004917
			 0.010896 -0.000589 -0.004716
			 0.011040  0.000483 -0.004481
			 0.011917  0.000115 -0.004670
			 0.013666 -0.001922 -0.002696
			 0.014086 -0.001776 -0.002599
			 0.014056 -0.001426 -0.003294