<?xml version="1.0"?>
<VTKFile type="PolyData" version="0.1" byte_order="LittleEndian" compressor="vtkZLibDataCompressor">
	<PolyData>
		<Piece NumberOfPoints="1973" NumberOfVerts="0" NumberOfLines="0" NumberOfStrips="0" NumberOfPolys="3942">
		<PointData Normals="Normals">
		<DataArray type="Float32" Name="Normals" NumberOfComponents="3" format="ascii">
			 0.029623 -0.930665  0.364671
			 0.111891 -0.992751 -0.043878
			-0.279359 -0.936914  0.210120
			 0.206787 -0.889749  0.406921
			 0.269329 -0.962997 -0.009931
			 0.289663 -0.875303  0.387221
			 0.260460 -0.771803  0.580070
			 0.176355 -0.815768  0.550837
			 0.173559 -0.975703 -0.133719
			 0.097958 -0.982640 -0.157554
			 0.093627 -0.984564  0.147881
			 0.092015 -0.903750  0.418054
			 0.212037 -0.969560 -0.122449
			 0.253569 -0.966260 -0.045216
			 0.236654 -0.960828 -0.144239
			 0.262466 -0.880293  0.395217
			 0.321697 -0.893290  0.313918
			 0.237919 -0.689142  0.684454
			 0.191374 -0.613725  0.765975
			 0.110301 -0.681627  0.723338
			 0.171847 -0.600094  0.781253
			 0.223372 -0.961818 -0.158150
			 0.180962 -0.956908 -0.227115
			 0.097615 -0.972209 -0.212796
			 0.045310 -0.983412 -0.175635
			 0.059484 -0.998087 -0.016835
			 0.078763 -0.847938  0.524211
			 0.113585 -0.952285  0.283287
			 0.185734 -0.978335 -0.091452
			 0.187532 -0.938497  0.289923
			 0.116410 -0.968135  0.221727
			 0.199279 -0.963609 -0.178175
			 0.005369 -0.908877  0.417031
			 0.112854 -0.788431  0.604682
			 0.225342 -0.609016  0.760474
			 0.215064 -0.505982  0.835302
			 0.133480 -0.453482  0.881213
			 0.031463 -0.664613  0.746525
			 0.053624 -0.475025  0.878337
			 0.200742 -0.941121 -0.272019
			 0.193434 -0.879989 -0.433823
			 0.149669 -0.912894 -0.379769
			 0.047534 -0.956292 -0.288524
			-0.029943 -0.983041 -0.180925
			-0.057050 -0.988615 -0.139231
			-0.030635 -0.996037 -0.083499
			-0.050241 -0.983735  0.172455
			 0.034079 -0.922520  0.384442
			 0.082049 -0.780988  0.619133
			 0.102850 -0.971142 -0.215186
			 0.112379 -0.982155  0.150806
			 0.022714 -0.990364 -0.136611
			 0.179309 -0.846981  0.500472
			 0.172422 -0.765874  0.619442
			 0.112236 -0.931561 -0.345829
			 0.198258 -0.635688  0.746053
			 0.183655 -0.497289  0.847924
			 0.221217 -0.440224  0.870210
			 0.181984 -0.280035  0.942583
			 0.080745 -0.291945  0.953021
			 0.057903 -0.285786  0.956543
			 0.053648 -0.539220  0.840455
			 0.136861 -0.114846  0.983910
			 0.128621 -0.836174 -0.533170
			 0.153604 -0.778479 -0.608585
			 0.147779 -0.820437 -0.552308
			 0.017201 -0.843228 -0.537281
			-0.165415 -0.926645 -0.337590
			-0.172392 -0.982699 -0.067705
			-0.099128 -0.995006 -0.011655
			-0.078103 -0.982914  0.166671
			-0.044407 -0.884211  0.464971
			-0.035970 -0.835268  0.548666
			 0.066520 -0.642513  0.763382
			 0.014877 -0.947724 -0.318744
			-0.041970 -0.971095 -0.234973
			 0.008968 -0.997789  0.065856
			 0.121643 -0.911672  0.392502
			-0.097292 -0.985144 -0.141510
			-0.155559 -0.967393 -0.199879
			 0.210671 -0.755880  0.619890
			 0.203242 -0.667216  0.716600
			 0.059721 -0.816789 -0.573837
			-0.035945 -0.819398 -0.572097
			 0.184379 -0.503955  0.843821
			 0.146670 -0.293556  0.944623
			 0.185640 -0.339023  0.922280
			 0.168582 -0.119983  0.978358
			 0.150528 -0.131901  0.979767
			 0.102944 -0.175940  0.979004
			 0.084797 -0.078712  0.993284
			 0.074685 -0.146624  0.986369
			 0.079116  0.200893  0.976413
			 0.111083 -0.384247  0.916523
			 0.108121  0.046722  0.993039
			 0.113609  0.218983  0.969092
			 0.119514  0.192243  0.974043
			 0.015485 -0.674960 -0.737692
			 0.097943 -0.681929 -0.724831
			 0.093490 -0.712194 -0.695729
			-0.014051 -0.673549 -0.739009
			-0.160086 -0.738117 -0.655405
			-0.203080 -0.864254 -0.460242
			-0.203374 -0.971716 -0.120029
			-0.123628 -0.992239  0.013312
			-0.066272 -0.974835  0.212851
			 0.030071 -0.838129  0.544643
			 0.083419 -0.630433  0.771748
			 0.094085 -0.234945  0.967445
			 0.111771 -0.450625  0.885689
			-0.079251 -0.930170 -0.358474
			-0.129177 -0.949823 -0.284869
			-0.041249 -0.940017  0.338623
			-0.133667 -0.989921 -0.046795
			 0.168138 -0.751472  0.637981
			 0.074756 -0.806766  0.586124
			-0.192534 -0.965533 -0.175146
			-0.233173 -0.965174 -0.118618
			 0.199352 -0.579731  0.790045
			-0.132418 -0.842629 -0.521959
			-0.133444 -0.691244 -0.710193
			-0.096369 -0.636958 -0.764851
			 0.183116 -0.373571  0.909348
			 0.122170 -0.088317  0.988572
			 0.148577 -0.051713  0.987548
			 0.033953  0.034307  0.998834
			 0.059334 -0.106506  0.992540
			 0.112388 -0.182454  0.976770
			 0.143367 -0.159907  0.976666
			 0.229126  0.161776  0.959859
			 0.189531  0.208737  0.959430
			 0.170925  0.318796  0.932284
			 0.042467  0.372541  0.927044
			 0.144128  0.092343  0.985241
			 0.097880  0.208490  0.973114
			 0.028984  0.219095  0.975273
			 0.123358  0.232616  0.964714
			 0.026165 -0.562042 -0.826695
			-0.051722 -0.557979 -0.828241
			 0.072448 -0.564318 -0.822372
			 0.043175 -0.596184 -0.801686
			-0.018163 -0.498321 -0.866802
			-0.158974 -0.492548 -0.855642
			-0.243779 -0.618408 -0.747090
			-0.154653 -0.708050 -0.689019
			-0.039426 -0.842980 -0.536498
			-0.097993 -0.978314 -0.182480
			-0.073285 -0.996989  0.025333
			-0.031847 -0.994514  0.099640
			-0.018326 -0.986406  0.163300
			-0.064564 -0.872663  0.484036
			-0.004090 -0.687199  0.726458
			 0.149714 -0.519319  0.841364
			 0.176818 -0.346910  0.921080
			 0.112269 -0.110768  0.987485
			-0.174322 -0.918067 -0.356040
			-0.235130 -0.917885  0.319689
			-0.232177 -0.970212  0.069156
			-0.078749 -0.811725  0.578707
			 0.063049 -0.679171  0.731267
			 0.150091 -0.602192  0.784116
			-0.205252 -0.959290 -0.193995
			-0.237585 -0.966975 -0.092260
			-0.297313 -0.951907  0.074015
			 0.184440 -0.384644  0.904451
			-0.202396 -0.679267 -0.705431
			-0.231874 -0.736625 -0.635310
			-0.207588 -0.586865 -0.782622
			-0.115146 -0.584770 -0.802985
			 0.180352 -0.207251  0.961520
			 0.128608  0.111859  0.985367
			-0.010736  0.188864  0.981945
			-0.153489  0.146802  0.977185
			-0.160591 -0.031538  0.986517
			 0.051032 -0.171735  0.983820
			 0.376673 -0.046018  0.925203
			 0.258946 -0.152740  0.953739
			 0.212970 -0.120189  0.969638
			 0.262686  0.229217  0.937259
			 0.174115  0.216242  0.960689
			 0.203622 -0.230102  0.951626
			 0.164226  0.250272  0.954146
			 0.229841  0.047843  0.972052
			 0.207937  0.195479  0.958410
			 0.161128  0.136326  0.977473
			 0.151004  0.299194  0.942168
			 0.075858  0.196563  0.977552
			 0.151154  0.404755  0.901846
			 0.071871  0.414300  0.907298
			 0.166619  0.481628  0.860391
			-0.002479 -0.518206 -0.855252
			 0.040627 -0.480979 -0.875791
			 0.040008 -0.352170 -0.935081
			 0.019764 -0.458438 -0.888507
			-0.004026 -0.418003 -0.908437
			-0.080717 -0.342675 -0.935980
			-0.227518 -0.299538 -0.926559
			-0.288510 -0.412692 -0.863972
			-0.163844 -0.579355 -0.798438
			 0.020949 -0.691903 -0.721687
			 0.060240 -0.749912 -0.658789
			 0.011164 -0.805122 -0.593004
			-0.071045 -0.927185 -0.367806
			-0.068478 -0.990657 -0.117940
			-0.104065 -0.989243  0.102801
			-0.086629 -0.987007  0.135327
			-0.055492 -0.983405  0.172727
			-0.190210 -0.968854  0.158565
			-0.095202 -0.789741  0.606008
			-0.101912 -0.469102  0.877244
			 0.059980 -0.355294  0.932828
			-0.253329 -0.821139 -0.511425
			-0.357831 -0.918409  0.168764
			-0.312698 -0.819759  0.479808
			-0.088688 -0.647196  0.757147
			 0.050768 -0.475821  0.878076
			 0.113906 -0.446096  0.887707
			-0.167752 -0.970815 -0.171397
			-0.198258 -0.979606  0.032650
			-0.208604 -0.879116 -0.428532
			-0.341551 -0.868563  0.359086
			-0.177003 -0.925926  0.333662
			 0.111958 -0.181005  0.977089
			 0.169614 -0.074632  0.982681
			-0.282702 -0.614031 -0.736916
			-0.280722 -0.515936 -0.809324
			-0.203453 -0.616719 -0.760437
			-0.041023 -0.615613 -0.786980
			 0.077783  0.317214  0.945159
			 0.179374  0.218244  0.959268
			 0.061913  0.254160  0.965178
			-0.040968  0.211293  0.976564
			-0.227053  0.194323  0.954299
			-0.364509  0.180687  0.913502
			-0.309064  0.065183  0.948805
			-0.100179 -0.109030  0.988978
			-0.102871  0.069553  0.992260
			 0.108654  0.016359  0.993945
			 0.463873 -0.044615  0.884778
			 0.522599  0.097678  0.846965
			 0.312692  0.051847  0.948438
			 0.252329  0.227574  0.940500
			 0.169182 -0.141964  0.975307
			 0.150139  0.382769  0.911562
			 0.199182  0.300731  0.932677
			-0.017301 -0.051569  0.998520
			-0.028098  0.104369  0.994142
			 0.043992  0.233033  0.971473
			 0.406754  0.451424  0.794209
			 0.132686  0.591105  0.795607
			 0.276026  0.713423  0.644079
			 0.080059  0.565221  0.821046
			 0.252483  0.717109  0.649621
			 0.106138 -0.588962 -0.801161
			 0.081704 -0.424717 -0.901632
			 0.118894 -0.222962 -0.967550
			 0.019950 -0.120529 -0.992509
			-0.013966 -0.196537 -0.980397
			-0.008356 -0.314245 -0.949305
			-0.073364 -0.127019 -0.989183
			-0.158913 -0.176876 -0.971320
			-0.255305 -0.026016 -0.966510
			-0.328870 -0.188343 -0.925404
			-0.321014 -0.351592 -0.879394
			-0.177769 -0.369323 -0.912140
			 0.070946 -0.697934 -0.712639
			 0.018761 -0.677287 -0.735480
			 0.072032 -0.693287 -0.717053
			-0.016102 -0.689457 -0.724148
			-0.118684 -0.772623 -0.623673
			-0.056784 -0.924472 -0.376997
			-0.088002 -0.993075 -0.077836
			-0.201723 -0.976175  0.079932
			-0.201737 -0.866278  0.457018
			-0.235672 -0.959765  0.152678
			-0.136134 -0.448060  0.883578
			-0.151169 -0.187467  0.970569
			-0.003792 -0.152125  0.988354
			-0.277454 -0.699843 -0.658209
			-0.258127 -0.647664  0.716870
			-0.334252 -0.647447  0.684900
			-0.128804 -0.423976  0.896467
			-0.010557 -0.365276  0.930839
			-0.154774 -0.985275 -0.072650
			-0.148633 -0.913310 -0.379175
			-0.123190 -0.984543  0.124500
			-0.191763 -0.738311 -0.646625
			-0.213710 -0.799178  0.561821
			-0.010940 -0.878894  0.476891
			 0.013800 -0.959462  0.281500
			-0.023247 -0.056603  0.998126
			 0.050292  0.190671  0.980365
			 0.145505 -0.005698  0.989341
			-0.276790 -0.541515 -0.793819
			-0.317328 -0.355607 -0.879117
			-0.437781 -0.295842 -0.849015
			-0.418242 -0.475822 -0.773736
			-0.126896 -0.767737 -0.628074
			-0.516123 -0.473580 -0.713680
			 0.105906  0.369487  0.923181
			 0.165704  0.209413  0.963685
			 0.144581  0.181245  0.972752
			 0.116468  0.274179  0.954600
			-0.061478  0.310244  0.948667
			-0.290767  0.359319  0.886761
			-0.451323  0.306616  0.838030
			-0.446956  0.281052  0.849259
			-0.353868  0.377152  0.855882
			 0.095888  0.266491  0.959056
			 0.673380  0.102294  0.732186
			 0.705291  0.124410  0.697916
			 0.660842  0.310681  0.683202
			 0.651599  0.343571  0.676297
			 0.166244  0.457902  0.873320
			 0.096135  0.421429  0.901752
			-0.195112  0.013628  0.980686
			-0.135569  0.142405  0.980480
			-0.120563  0.172521  0.977600
			-0.087879  0.327027  0.940920
			 0.634168  0.579933  0.511378
			 0.295011  0.711965  0.637239
			 0.092008  0.748827  0.656348
			 0.231734  0.835252  0.498651
			 0.002455  0.715082  0.699036
			 0.077827  0.601362  0.795177
			 0.069077  0.874682  0.479750
			 0.204723 -0.712849 -0.670772
			 0.416800 -0.486380 -0.767927
			 0.216904 -0.445461 -0.868630
			 0.316859 -0.091982 -0.944002
			 0.129983  0.044507 -0.990517
			 0.045906  0.003823 -0.998938
			 0.005036  0.148690 -0.988871
			-0.028401  0.072541 -0.996961
			-0.047308  0.027704 -0.998496
			-0.142582  0.180558 -0.973175
			-0.158858  0.064542 -0.985190
			-0.201429  0.155433 -0.967092
			-0.206593  0.362427 -0.908826
			-0.255670  0.159391 -0.953534
			-0.277018 -0.072293 -0.958141
			-0.168818  0.041903 -0.984756
			-0.066198 -0.176342 -0.982100
			 0.015808 -0.459330 -0.888125
			 0.074563 -0.757742 -0.648281
			 0.023289 -0.574556 -0.818134
			-0.028521 -0.725555 -0.687572
			-0.066770 -0.679073 -0.731028
			-0.163074 -0.684030 -0.710992
			-0.102504 -0.842763 -0.528435
			-0.103809 -0.729874 -0.675653
			-0.004462 -0.947234 -0.320512
			 0.027224 -0.978502 -0.204433
			-0.176148 -0.984361 -0.002439
			-0.370794 -0.770658  0.518264
			-0.344326 -0.287085  0.893880
			-0.134840 -0.980295  0.144362
			-0.117026 -0.954027  0.275929
			-0.255435 -0.380452  0.888825
			-0.151640 -0.343238  0.926927
			-0.177386 -0.596276  0.782936
			-0.140994 -0.170236  0.975264
			-0.144342 -0.971017 -0.190501
			-0.133304 -0.843962 -0.519575
			-0.142603 -0.750057 -0.645817
			-0.067300 -0.990575 -0.119300
			-0.033248 -0.987491  0.154128
			-0.168810 -0.606718 -0.776786
			 0.019523 -0.727969  0.685333
			 0.125644 -0.848400  0.514229
			 0.133049 -0.910878  0.390640
			 0.071725 -0.990241  0.119493
			 0.142063 -0.945598  0.292683
			-0.032335  0.124669  0.991671
			 0.027157  0.254713  0.966635
			-0.242796 -0.466779 -0.850393
			-0.386338 -0.163021 -0.907837
			-0.319395 -0.020025 -0.947410
			-0.336815 -0.197613 -0.920600
			-0.267130 -0.355178 -0.895818
			-0.469766  0.122197 -0.874293
			-0.582399 -0.108897 -0.805576
			-0.775031 -0.257282 -0.577176
			-0.547681 -0.447796 -0.706770
			 0.128850 -0.641936 -0.755854
			-0.647359  0.340800 -0.681749
			 0.095510  0.235678  0.967127
			 0.141278  0.109760  0.983866
			 0.227135  0.099867  0.968729
			 0.215911  0.248628  0.944228
			 0.095828  0.409911  0.907078
			-0.119757  0.558843  0.820581
			-0.429146  0.493330  0.756610
			-0.557767  0.447443  0.699064
			-0.656398  0.538834  0.528015
			-0.510978  0.608380  0.607269
			-0.133292  0.552903  0.822515
			 0.478305  0.480892  0.734824
			 0.244063  0.590202  0.769477
			 0.806712  0.324375  0.493960
			 0.781108  0.573780  0.246266
			 0.804062  0.544419  0.238938
			 0.160537  0.640741  0.750785
			-0.048646  0.593521  0.803347
			-0.140588  0.498847  0.855212
			-0.236382  0.042561  0.970728
			-0.102129  0.169534  0.980218
			-0.124296  0.197438  0.972404
			-0.143124  0.025475  0.989377
			-0.175674  0.040772  0.983604
			-0.242493  0.133508  0.960923
			-0.222141  0.314591  0.922868
			 0.535340  0.814729  0.222771
			 0.507370  0.740563  0.440616
			 0.358807  0.811002  0.462096
			 0.086058  0.880355  0.466444
			 0.162471  0.826889  0.538385
			 0.137490  0.948639  0.284921
			-0.027105  0.964549  0.262508
			 0.003967  0.942159  0.335143
			 0.172685  0.979381  0.104844
			 0.213274 -0.419658 -0.882270
			 0.493481  0.195603 -0.847476
			 0.461091  0.381663 -0.801080
			 0.152184  0.308090 -0.939106
			 0.047440  0.290543 -0.955685
			-0.043831  0.436088 -0.898836
			-0.050571  0.310777 -0.949137
			-0.057017  0.221103 -0.973582
			-0.112685  0.360310 -0.926001
			-0.169372  0.431325 -0.886155
			-0.181295  0.312715 -0.932385
			-0.160466  0.297377 -0.941179
			-0.152323  0.532223 -0.832788
			-0.079158  0.682042 -0.727016
			-0.122017  0.517959 -0.846658
			-0.167479  0.310312 -0.935766
			-0.107835  0.384942 -0.916619
			-0.081255  0.185479 -0.979283
			 0.004633 -0.324372 -0.945918
			-0.062389  0.018216 -0.997886
			-0.031804 -0.461715 -0.886458
			-0.113751 -0.611368 -0.783128
			-0.146383 -0.651252 -0.744610
			-0.017813 -0.864480 -0.502351
			-0.036886 -0.642893 -0.765067
			 0.037094 -0.748247 -0.662382
			 0.071411 -0.890000 -0.450335
			 0.161189 -0.923149 -0.349020
			-0.058030 -0.997995 -0.025268
			 0.190024 -0.944113 -0.269337
			 0.149676 -0.985258 -0.082848
			-0.048519 -0.845200  0.532244
			-0.227036 -0.562407  0.795081
			-0.382704 -0.159501  0.909998
			-0.017985 -0.929830  0.367550
			-0.026235 -0.986095  0.164097
			 0.036942 -0.868988  0.493452
			-0.085497 -0.055788  0.994775
			-0.003036 -0.412284  0.911050
			-0.026596 -0.145998  0.988927
			-0.098585 -0.696944 -0.710317
			-0.082656 -0.888654 -0.451068
			-0.039834 -0.975965 -0.214254
			 0.045454 -0.998479 -0.031193
			-0.163907 -0.461668 -0.871778
			 0.118330 -0.576292  0.808632
			 0.170730 -0.631225  0.756575
			 0.146757 -0.742295  0.653805
			 0.166710 -0.872532  0.459233
			 0.135032 -0.973601  0.184031
			 0.041890  0.127729  0.990924
			-0.331456  0.188308 -0.924487
			-0.360270  0.105245 -0.926892
			-0.299839  0.331415 -0.894573
			-0.264134  0.414053 -0.871088
			-0.309337 -0.171077 -0.935438
			-0.200310 -0.304293 -0.931280
			-0.255104  0.534936 -0.805460
			-0.479845  0.414840 -0.773082
			-0.607899  0.449597 -0.654463
			-0.154949  0.084427 -0.984308
			 0.102346  0.350434 -0.930979
			-0.287911  0.702058 -0.651324
			-0.261272  0.704843 -0.659495
			 0.125439  0.027971  0.991707
			 0.180950  0.078987  0.980315
			 0.231501  0.218462  0.947988
			 0.169564  0.525118  0.833966
			 0.048774  0.567743  0.821760
			 0.037091  0.716352  0.696753
			-0.358384  0.650940  0.669207
			-0.224648  0.731151  0.644168
			-0.565605  0.533758  0.628644
			-0.494123  0.755912  0.429464
			-0.652377  0.738479  0.170448
			-0.512381  0.858382 -0.025407
			-0.224753  0.850400  0.475716
			 0.027161  0.817236  0.575663
			 0.714944  0.663373  0.220888
			 0.698826  0.710115 -0.085899
			-0.169660  0.744688  0.645489
			-0.327389  0.463450  0.823426
			-0.345828  0.549934  0.760247
			-0.052454 -0.307648  0.950053
			-0.036513 -0.030216  0.998876
			-0.044181  0.171970  0.984111
			-0.057584  0.104551  0.992851
			-0.138970  0.031174  0.989806
			-0.099626 -0.061067  0.993149
			-0.115325 -0.079180  0.990167
			-0.430569  0.063319  0.900334
			-0.318960  0.250800  0.913983
			 0.419315  0.838981  0.346823
			 0.696412  0.685777 -0.211470
			 0.352099  0.934014 -0.060369
			 0.297387  0.939001  0.172735
			 0.134279  0.942671  0.305518
			-0.031118  0.997543  0.062768
			 0.150938  0.988150 -0.027872
			-0.017437  0.998367 -0.054409
			-0.267045  0.948365  0.171145
			 0.162853  0.986562  0.013194
			 0.355252  0.644252 -0.677300
			 0.315243  0.769532 -0.555376
			 0.226016  0.669695 -0.707408
			 0.064953  0.526740 -0.847541
			-0.020721  0.509993 -0.859929
			-0.071296  0.626513 -0.776143
			-0.087107  0.525012 -0.846626
			-0.084812  0.481432 -0.872371
			-0.108492  0.653638 -0.748990
			-0.167921  0.567864 -0.805812
			-0.145257  0.666220 -0.731472
			-0.102169  0.754695 -0.648072
			-0.046974  0.778003 -0.626502
			 0.004638  0.862540 -0.505967
			-0.056343  0.744577 -0.665154
			-0.084887  0.581021 -0.809450
			-0.151330  0.630428 -0.761354
			-0.174569  0.463997 -0.868466
			-0.146672  0.307259 -0.940255
			-0.085266 -0.151862 -0.984717
			-0.181084  0.223666 -0.957696
			-0.116204 -0.321219 -0.939848
			-0.077034 -0.454437 -0.887442
			-0.004860 -0.542445 -0.840078
			 0.095131 -0.599496 -0.794704
			 0.148263 -0.717699 -0.680387
			 0.172358 -0.835026 -0.522517
			 0.255363 -0.875869 -0.409442
			 0.214324 -0.928883 -0.302064
			 0.111565 -0.971224  0.210424
			 0.221462 -0.965890  0.134205
			 0.182017 -0.957853 -0.222235
			 0.209686 -0.976822 -0.043007
			 0.047567 -0.633195  0.772529
			 0.017197 -0.888503  0.458548
			 0.080323 -0.713309  0.696231
			 0.066159  0.001004  0.997809
			 0.146310 -0.118330  0.982136
			 0.228141 -0.260518  0.938127
			-0.093142 -0.515534 -0.851792
			-0.084896 -0.753774 -0.651627
			 0.019943 -0.946564 -0.321899
			-0.021261 -0.857848 -0.513463
			 0.045769 -0.985397 -0.164006
			 0.124195 -0.992257  0.001212
			-0.139411 -0.357807 -0.923330
			 0.223712 -0.404356  0.886820
			 0.172053 -0.462005  0.870028
			 0.137854 -0.584294  0.799748
			 0.111233 -0.654167  0.748126
			 0.173453 -0.750493  0.637711
			 0.171118 -0.947364  0.270592
			 0.212448 -0.871628  0.441736
			-0.303588  0.412340 -0.858959
			-0.303533  0.304821 -0.902747
			-0.339241  0.021298 -0.940459
			-0.226481  0.566293 -0.792477
			-0.162923  0.628499 -0.760556
			-0.245813 -0.099671 -0.964179
			-0.132400 -0.256255 -0.957499
			-0.080469  0.690294 -0.719041
			-0.146385  0.694086 -0.704851
			 0.106818  0.761095 -0.639785
			-0.129614  0.763447 -0.632731
			-0.148739  0.784497 -0.602031
			-0.109211  0.835877 -0.537942
			 0.146398  0.024579  0.988920
			 0.180948  0.225590  0.957271
			 0.197718  0.328740  0.923492
			 0.208826  0.545312  0.811804
			 0.167378  0.735297  0.656752
			-0.050015  0.740010  0.670733
			-0.015038  0.665077  0.746624
			-0.101643  0.860578  0.499073
			-0.092546  0.825941  0.556109
			 0.023748  0.897089  0.441211
			-0.152746  0.975696  0.157115
			-0.341397  0.929870 -0.137078
			-0.085262  0.991636 -0.096893
			-0.128726  0.856964 -0.499041
			 0.254443  0.960048  0.116474
			 0.435093  0.887073 -0.154260
			-0.399467  0.790893  0.463588
			-0.444544  0.707219  0.549747
			-0.445589  0.573031  0.687813
			-0.339072  0.388183  0.856939
			-0.401431  0.536170  0.742546
			 0.058394 -0.364449  0.929391
			-0.004448 -0.098277  0.995149
			 0.074327 -0.202914  0.976371
			-0.088328  0.056516  0.994487
			 0.086673  0.033041  0.995689
			 0.004160  0.089913  0.995941
			-0.091239  0.039254  0.995055
			-0.336537  0.313586  0.887922
			-0.038857  0.298516  0.953613
			-0.379310  0.457285  0.804372
			 0.247420  0.944662 -0.215399
			 0.023387  0.996471 -0.080608
			 0.131551  0.990840 -0.030493
			-0.124849  0.964692 -0.231910
			-0.045749  0.998824 -0.016076
			-0.099703  0.967816 -0.231065
			-0.023539  0.961731 -0.272984
			 0.121098  0.966558 -0.226053
			 0.159231  0.977713 -0.136833
			-0.170657  0.982746  0.071323
			-0.424466  0.900189  0.097408
			-0.494161  0.852357  0.171151
			-0.059682  0.996585 -0.057066
			 0.008275  0.769217 -0.638934
			-0.001967  0.692589 -0.721330
			-0.029772  0.630659 -0.775489
			-0.056091  0.764893 -0.641710
			-0.081357  0.668025 -0.739678
			-0.081652  0.781219 -0.618894
			-0.124442  0.815778 -0.564818
			-0.155949  0.719133 -0.677147
			-0.126809  0.788117 -0.602321
			-0.071219  0.837311 -0.542068
			-0.020587  0.870038 -0.492555
			 0.077154  0.941091 -0.329233
			-0.001800  0.958943 -0.283593
			-0.120675  0.858508 -0.498399
			-0.090777  0.753104 -0.651609
			-0.185579  0.774497 -0.604744
			-0.312443  0.703039 -0.638839
			-0.275722  0.605850 -0.746273
			-0.256393  0.481130 -0.838318
			-0.173744  0.073287 -0.982060
			-0.217188  0.402826 -0.889135
			-0.115990 -0.172221 -0.978205
			-0.025421 -0.239845 -0.970478
			 0.047175 -0.410880 -0.910468
			 0.074859 -0.494333 -0.866044
			 0.150918 -0.541991 -0.826722
			 0.198828 -0.580809 -0.789384
			 0.226173 -0.655143 -0.720856
			 0.267871 -0.766969 -0.583099
			 0.208476 -0.873881 -0.439169
			 0.085853 -0.942290 -0.323603
			 0.196417 -0.915917  0.350022
			 0.121142 -0.876713  0.465509
			 0.314955 -0.936399  0.154790
			 0.270312 -0.887234  0.373827
			 0.126287 -0.974876 -0.183490
			 0.272385 -0.961427 -0.038269
			 0.074845 -0.765079  0.639572
			 0.062818 -0.629564  0.774405
			 0.075890 -0.445789  0.891915
			 0.126970  0.083400  0.988394
			 0.218460 -0.023039  0.975574
			 0.271757 -0.135371  0.952797
			-0.044597 -0.421210 -0.905866
			 0.001300 -0.696692 -0.717370
			 0.121943 -0.849435 -0.513411
			 0.215889 -0.920127 -0.326740
			 0.207238 -0.963540 -0.169242
			 0.222924 -0.967032  0.123102
			 0.241029 -0.128208  0.962012
			 0.126798 -0.239098  0.962681
			 0.108782 -0.473084  0.874276
			 0.166308 -0.613548  0.771946
			 0.277226 -0.734159  0.619804
			 0.355222 -0.879332  0.317163
			-0.209139  0.573295 -0.792208
			-0.227069  0.417204 -0.879989
			-0.288393  0.147044 -0.946154
			-0.177853  0.707580 -0.683885
			-0.210752  0.662078 -0.719192
			-0.117121  0.741824 -0.660288
			-0.235189  0.044373 -0.970936
			-0.184254 -0.070372 -0.980356
			-0.084805 -0.117483 -0.989447
			-0.037756  0.816318 -0.576367
			-0.037401  0.762868 -0.645471
			-0.116948  0.840236 -0.529459
			-0.065959  0.755234 -0.652129
			-0.056499  0.824137 -0.563565
			 0.153858  0.352480  0.923085
			 0.129682  0.607662  0.783536
			 0.192738  0.761060  0.619387
			 0.212711  0.828327  0.518294
			 0.063969  0.808923  0.584424
			 0.027556  0.878837  0.476326
			-0.156161  0.840367  0.519034
			-0.171837  0.818564  0.548111
			 0.077538  0.959796  0.269775
			-0.157586  0.938994  0.305709
			-0.155368  0.936901  0.313172
			-0.138094  0.989346  0.046092
			 0.058814  0.996084  0.066007
			 0.111340  0.991177 -0.071913
			-0.039336  0.997579 -0.057340
			-0.076044  0.996557 -0.033031
			-0.493834  0.801967  0.336122
			-0.511905  0.767122  0.386623
			-0.453906  0.697602  0.554365
			-0.430432  0.619753  0.656227
			-0.197667  0.360762  0.911470
			-0.276102  0.550731  0.787695
			-0.340490  0.704083  0.623165
			 0.105629 -0.497269  0.861143
			 0.195537 -0.162978  0.967059
			 0.003340  0.179657  0.983724
			 0.204495  0.008799  0.978828
			 0.107846  0.116200  0.987354
			-0.053810  0.381076  0.922976
			-0.002781  0.982264 -0.187482
			 0.038954  0.961521 -0.271956
			 0.016945  0.958633 -0.284141
			-0.047836  0.936707 -0.346830
			-0.107987  0.907007 -0.407035
			-0.094331  0.885431 -0.455098
			 0.018366  0.931880 -0.362301
			-0.362230  0.922634 -0.132425
			-0.520275  0.853868 -0.014980
			-0.555150  0.815809  0.162061
			-0.169580  0.964595 -0.201985
			-0.014720  0.708684 -0.705372
			-0.016863  0.784682 -0.619669
			-0.020222  0.845856 -0.533027
			-0.062213  0.868008 -0.492638
			-0.186282  0.917955 -0.350224
			-0.368004  0.808960 -0.458429
			-0.417376  0.660013 -0.624645
			-0.334098  0.607075 -0.720998
			-0.258596  0.560486 -0.786755
			-0.092302  0.009846 -0.995682
			-0.140539  0.271780 -0.952042
			-0.152429  0.537980 -0.829062
			-0.010887 -0.012790 -0.999859
			 0.021848 -0.285275 -0.958197
			 0.092412 -0.425607 -0.900177
			 0.206079 -0.445961 -0.871005
			 0.223707 -0.641312 -0.733945
			 0.202020 -0.569019 -0.797123
			 0.260681 -0.712903 -0.651011
			 0.229042 -0.797679 -0.557897
			 0.030330 -0.879888 -0.474211
			 0.030253 -0.972785 -0.229725
			 0.185589 -0.787917  0.587148
			 0.278818 -0.738713  0.613648
			 0.146210 -0.709100  0.689783
			 0.330254 -0.826754  0.455423
			 0.551863 -0.822924  0.135068
			 0.514899 -0.788420  0.336562
			 0.333985 -0.626648  0.704107
			 0.239620 -0.963624 -0.118370
			 0.599472 -0.799568  0.036393
			 0.142250  0.205301  0.968306
			 0.243315  0.014961  0.969832
			-0.002147 -0.314842 -0.949142
			 0.037618 -0.546221 -0.836796
			 0.165585 -0.657132 -0.735363
			 0.305511 -0.806730 -0.505816
			 0.394350 -0.866676 -0.305550
			 0.325159 -0.945340  0.024556
			 0.405443 -0.905749 -0.123430
			 0.211801  0.141049  0.967081
			 0.164767  0.076697  0.983346
			 0.082948 -0.003076  0.996549
			 0.068974 -0.232290  0.970198
			 0.128728 -0.455390  0.880937
			 0.223954 -0.560817  0.797075
			 0.358798 -0.774157  0.521484
			 0.309839 -0.633539  0.708962
			 0.356333 -0.856007  0.374537
			 0.418468 -0.901200  0.112795
			 0.424160 -0.902299  0.077111
			-0.154574  0.559481 -0.814302
			-0.117652  0.697655 -0.706708
			-0.153638  0.748123 -0.645529
			-0.214417  0.317878 -0.923569
			-0.127830  0.833019 -0.538274
			-0.159929  0.140455 -0.977085
			-0.174509  0.014142 -0.984554
			-0.093837  0.026597 -0.995232
			-0.042326 -0.072074 -0.996501
			-0.043123  0.907872 -0.417024
			-0.012254  0.938004 -0.346408
			 0.010818  0.846823 -0.531764
			-0.055748  0.837549 -0.543510
			-0.038051  0.888660 -0.456986
			-0.126209  0.933365 -0.336007
			-0.086208  0.897337 -0.432844
			 0.067478  0.928043 -0.366309
			 0.039824  0.871853 -0.488146
			 0.076153  0.449956  0.889798
			 0.107243  0.542146  0.833413
			 0.125263  0.390078  0.912222
			 0.088071  0.735189  0.672116
			 0.152604  0.842143  0.517211
			 0.140107  0.927673  0.346112
			 0.154005  0.928895  0.336803
			 0.055166  0.985916  0.157879
			-0.000119  0.980664  0.195697
			-0.041463  0.998976 -0.018120
			-0.153242  0.987377 -0.040054
			-0.102436  0.969013 -0.224767
			 0.066200  0.971289 -0.228505
			-0.506028  0.829551  0.236179
			-0.418123  0.823044  0.384412
			-0.146206  0.570135  0.808436
			-0.218309  0.739203  0.637119
			-0.300658  0.852796  0.427017
			 0.243145 -0.497027  0.832973
			 0.292621 -0.222799  0.929910
			 0.257527 -0.092225  0.961860
			 0.082928  0.187778  0.978704
			 0.080337  0.319769  0.944084
			 0.050639  0.428071  0.902325
			 0.146666  0.098731  0.984247
			 0.141834  0.203247  0.968800
			-0.000471  0.597561  0.801824
			 0.005873  0.910892 -0.412602
			-0.527714  0.803873 -0.274420
			-0.562894  0.818918 -0.111904
			-0.526106  0.850241 -0.017408
			-0.502632  0.719409 -0.479387
			-0.464979  0.674621 -0.573307
			-0.340797  0.645910 -0.683124
			-0.246784  0.603816 -0.757960
			-0.103674  0.355739 -0.928817
			-0.090148  0.185566 -0.978488
			-0.109598  0.637628 -0.762508
			-0.098255  0.581668 -0.807470
			-0.044819  0.327041 -0.943947
			 0.030299 -0.078515 -0.996452
			 0.072471  0.328269 -0.941800
			 0.163762 -0.165861 -0.972457
			 0.296292 -0.180826 -0.937823
			 0.260150 -0.403769 -0.877093
			 0.073862 -0.736205 -0.672716
			 0.084993 -0.638046 -0.765293
			 0.253822 -0.430222 -0.866305
			 0.149561 -0.524285 -0.838306
			-0.032317 -0.927644 -0.372065
			-0.100691 -0.808577 -0.579711
			 0.314139 -0.433352  0.844703
			 0.473754 -0.592081  0.651918
			 0.815536 -0.564708  0.126514
			 0.751312 -0.588931  0.297812
			 0.660381 -0.550725  0.510488
			 0.390076 -0.302385  0.869715
			 0.199256 -0.921333 -0.333830
			 0.618155 -0.783173 -0.067258
			 0.890305 -0.454564  0.026983