<?xml version="1.0"?>
<VTKFile type="PolyData" version="0.1" byte_order="LittleEndian" compressor="vtkZLibDataCompressor">
	<PolyData>
		<Piece NumberOfPoints="5988" NumberOfVerts="0" NumberOfLines="0" NumberOfStrips="0" NumberOfPolys="12000">
		<PointData Normals="Normals">
		<DataArray type="Float32" Name="Normals" NumberOfComponents="3" format="ascii">
			 0.980704  0.084849 -0.176126
			 0.962636 -0.065343  0.262796
			 0.847419 -0.308502  0.432097
			 0.941679  0.262367 -0.210723
			 0.707261  0.391379 -0.588731
			 0.693854  0.640222 -0.329670
			 0.201065 -0.501889  0.841237
			 0.687184 -0.159683  0.708717
			 0.812030  0.326527 -0.483722
			 0.786649 -0.168017  0.594099
			 0.414716  0.567183 -0.711557
			 0.466789  0.458519 -0.756220
			 0.489497  0.759556 -0.428331
			 0.615475  0.764942  0.189880
			 0.382731  0.109903  0.917300
			-0.108012 -0.476976  0.872254
			-0.124793 -0.419123  0.899312
			-0.015281 -0.420910  0.906974
			 0.701712 -0.462089  0.542285
			 0.953264 -0.011469 -0.301921
			 0.814342  0.240884 -0.528037
			-0.099567 -0.466788  0.878746
			 0.357365  0.622006 -0.696706
			 0.325542  0.648084 -0.688484
			 0.350541  0.630112 -0.692878
			 0.494502  0.645240 -0.582351
			 0.350939  0.520602 -0.778342
			 0.437787  0.466093 -0.768830
			 0.374095  0.418321 -0.827684
			 0.354489  0.358147 -0.863752
			 0.693418  0.708208 -0.132711
			 0.397148  0.342839  0.851314
			-0.230293 -0.154871  0.960719
			-0.238892 -0.289656  0.926839
			-0.679551  0.001254  0.733627
			-0.554382 -0.391718  0.734315
			-0.341527 -0.403665  0.848772
			-0.671359  0.181887  0.718466
			-0.756442  0.132406  0.640519
			 0.016123 -0.482733  0.875619
			 0.012671 -0.438684  0.898552
			 0.186958 -0.593107  0.783116
			 0.716264 -0.428645  0.550663
			 0.428347  0.316330 -0.846436
			 0.964121 -0.027796  0.264006
			-0.551924 -0.613630  0.564657
			-0.745462 -0.556553  0.366791
			 0.450710  0.604516 -0.656826
			 0.527321  0.590364 -0.611067
			 0.431547  0.556261 -0.710170
			 0.391212  0.725960 -0.565628
			 0.352766  0.795279 -0.493040
			 0.636660  0.741049 -0.213333
			 0.331789  0.639536 -0.693476
			 0.806340  0.588513  0.058889
			 0.337151  0.544080 -0.768314
			 0.331175  0.329744 -0.884077
			 0.207694  0.278826 -0.937614
			-0.258866 -0.494349  0.829824
			 0.300973 -0.241644  0.922509
			-0.489943 -0.166547  0.855697
			-0.411021 -0.679920  0.607265
			-0.635895 -0.119975  0.762394
			-0.802145  0.111102  0.586703
			-0.529542 -0.385756  0.755498
			-0.861615 -0.234787  0.449993
			-0.322632 -0.507822  0.798765
			-0.336395 -0.487858  0.805502
			-0.334975 -0.572466  0.748381
			-0.623565  0.084537  0.777187
			-0.524174  0.286249  0.802062
			-0.500918  0.125749  0.856311
			-0.896975 -0.098265  0.431022
			-0.572634 -0.357543  0.737735
			 0.055928 -0.528436  0.847129
			 0.319349 -0.359830  0.876663
			 0.197055  0.202287 -0.959296
			 0.250611  0.227043 -0.941088
			 0.641169  0.160316 -0.750467
			 0.968923 -0.187371  0.161492
			-0.703882 -0.705151  0.085510
			-0.609757 -0.552810  0.567977
			 0.626523  0.629450 -0.459632
			 0.379657  0.722091 -0.578312
			 0.690545  0.515942 -0.506904
			 0.636084  0.522922 -0.567407
			 0.574624  0.258340 -0.776574
			 0.471853  0.308910 -0.825790
			 0.190875  0.805972 -0.560336
			 0.227778  0.890163 -0.394622
			 0.390466  0.855367 -0.340415
			 0.661657  0.581463  0.473403
			 0.589843  0.074463  0.804077
			 0.793463  0.344605  0.501660
			 0.426412 -0.130142  0.895118
			 0.367421  0.144217 -0.918805
			 0.232653  0.190854 -0.953650
			 0.183688  0.203048 -0.961785
			 0.036763 -0.156386 -0.987012
			-0.516714  0.112818 -0.848692
			-0.233868  0.270668 -0.933833
			 0.255486  0.609083 -0.750830
			 0.048216 -0.771954  0.633848
			-0.256773 -0.650878  0.714441
			-0.014150 -0.547818  0.836478
			-0.590307 -0.352659  0.726064
			 0.032714 -0.535289  0.844035
			-0.599796 -0.764576  0.235942
			-0.691311 -0.562251  0.453832
			-0.298562 -0.466844  0.832417
			-0.318566 -0.517138  0.794408
			-0.189419 -0.367543  0.910512
			-0.205160 -0.096935  0.973916
			-0.003471 -0.290231  0.956950
			 0.013520 -0.341746  0.939695
			-0.043944 -0.456768  0.888500
			-0.208057 -0.598117  0.773931
			 0.050507 -0.434799  0.899110
			 0.266859 -0.229373  0.936042
			 0.166300 -0.169701  0.971363
			-0.281555 -0.070178  0.956975
			 0.005566 -0.381605  0.924309
			 0.070866 -0.385975  0.919783
			 0.215529 -0.304646 -0.927760
			 0.158297  0.481753 -0.861891
			-0.082708  0.082979 -0.993113
			-0.285768 -0.084585 -0.954558
			-0.222318  0.009448 -0.974928
			 0.029871  0.121676 -0.992120
			 0.334687  0.016159 -0.942191
			 0.688449 -0.296643 -0.661847
			 0.963902 -0.245858  0.102213
			 0.993310 -0.097548 -0.061810
			 0.448395 -0.385494  0.806434
			 0.403315  0.854740 -0.326735
			 0.162825  0.872423 -0.460832
			 0.790704  0.562852 -0.240799
			 0.008649  0.831232 -0.555859
			 0.990355  0.091471  0.104064
			 0.923324  0.234682 -0.303970
			 0.830066  0.273081 -0.486227
			 0.721002  0.068731 -0.689516
			 0.406693  0.166663 -0.898234
			-0.303219  0.872489 -0.383173
			 0.208855  0.968462  0.135870
			 0.437948  0.890701  0.121877
			-0.285499  0.956687 -0.056923
			-0.155289  0.837443  0.523998
			 0.099168  0.149013  0.983850
			-0.122318 -0.319041  0.939815
			 0.205118 -0.471669  0.857587
			 0.419995  0.202044 -0.884750
			 0.645153  0.094025 -0.758246
			 0.430980 -0.437392 -0.789268
			-0.360868 -0.495066 -0.790369
			-0.364220  0.128719 -0.922375
			 0.161745  0.499019 -0.851363
			-0.276749 -0.342925 -0.897671
			-0.315648 -0.377587 -0.870514
			-0.102447 -0.118337 -0.987675
			 0.171474 -0.549722  0.817559
			 0.412141 -0.532491  0.739319
			 0.296584 -0.678848  0.671717
			 0.151412 -0.632266  0.759812
			 0.098825 -0.551148  0.828535
			-0.209893 -0.430136  0.878025
			 0.378661 -0.506730  0.774493
			 0.402304 -0.018815  0.915313
			 0.272803 -0.240477  0.931531
			 0.046081 -0.055919  0.997371
			 0.244615 -0.248139  0.937332
			 0.255486  0.051720  0.965428
			 0.164702  0.084944  0.982679
			 0.119428 -0.354289  0.927479
			 0.205933 -0.256030  0.944479
			 0.542115 -0.232061  0.807625
			 0.288895 -0.317103  0.903319
			 0.073230 -0.375496  0.923926
			 0.031042 -0.355519  0.934153
			 0.235020 -0.524983 -0.818021
			-0.477519  0.050632 -0.877161
			-0.020204  0.139223 -0.990055
			-0.279184 -0.166751 -0.945648
			-0.136224  0.229450 -0.963741
			 0.098299  0.193670 -0.976130
			 0.317708 -0.138575 -0.938008
			 0.527039 -0.644472  0.553972
			 0.412977 -0.443699  0.795350
			 0.067725 -0.339924  0.938011
			-0.199591  0.937273 -0.285801
			 0.009163  0.964389 -0.264329
			 0.215834  0.934272 -0.283816
			 0.408003  0.866909 -0.286361
			-0.324295  0.854835 -0.405080
			 0.987330 -0.148723  0.055325
			 0.661469  0.718835 -0.213855
			 0.923238  0.214495 -0.318785
			 0.807391 -0.041615 -0.588548
			 0.912919  0.248329 -0.323900
			 0.611899  0.131524 -0.779924
			 0.699558 -0.011302 -0.714486
			 0.776550 -0.171190 -0.606353
			-0.688821  0.709870  0.147002
			-0.339510  0.884295 -0.320555
			 0.282357  0.651452  0.704191
			-0.383071  0.538382  0.750601
			 0.639268  0.369390  0.674454
			 0.624241  0.568090  0.536280
			-0.454320  0.219435  0.863390
			-0.164819 -0.496399  0.852305
			-0.001381  0.035308  0.999375
			 0.180927 -0.546589  0.817622
			 0.455681  0.089218 -0.885661
			 0.877965 -0.475083  0.058941
			 0.380493 -0.246249 -0.891396
			 0.351844 -0.221326 -0.909517
			 0.333985  0.225366 -0.915240
			 0.605789  0.436507 -0.665192
			 0.495118  0.538188 -0.682064
			 0.214545  0.439813 -0.872087
			 0.064376  0.021496 -0.997694
			 0.244455 -0.454112  0.856752
			 0.453964 -0.327556  0.828627
			 0.661843 -0.455178  0.595631
			 0.413013 -0.405392  0.815523
			 0.639734 -0.631610  0.437959
			 0.737274 -0.412101  0.535350
			 0.769843  0.034202  0.637316
			 0.688899  0.197854  0.697332
			 0.083419  0.008656  0.996477
			 0.220305 -0.108152  0.969417
			 0.667288  0.104995  0.737362
			 0.838486 -0.113055  0.533066
			 0.912736 -0.201724  0.355275
			 0.297907 -0.443169  0.845490
			 0.091154 -0.270729  0.958330
			 0.232809 -0.491052  0.839445
			 0.128023 -0.334579  0.933631
			 0.532222 -0.112793  0.839057
			-0.008924 -0.462397  0.886628
			 0.244557 -0.525656  0.814786
			 0.069730 -0.442644  0.893982
			 0.008521 -0.327025  0.944977
			 0.110722  0.368358 -0.923067
			-0.038977  0.424874 -0.904413
			-0.003214  0.253798 -0.967252
			 0.004892  0.294298 -0.955701
			 0.064518  0.215748 -0.974315
			 0.431184 -0.900887 -0.049836
			 0.145460 -0.694513 -0.704623
			 0.075134 -0.366831  0.927248
			-0.418138  0.831212 -0.366397
			-0.542259  0.827588 -0.145096
			-0.277668  0.947226 -0.160198
			-0.020178  0.967498 -0.252074
			-0.077191  0.986107 -0.147087
			 0.424508  0.883308 -0.198896
			 0.609609  0.554857 -0.566136
			 0.763578  0.069969 -0.641914
			 0.832545  0.119728 -0.540864
			 0.891509 -0.102669 -0.441216
			 0.905712 -0.158004 -0.393346
			 0.796606 -0.117798 -0.592910
			 0.845466  0.463542 -0.265173
			 0.559220 -0.028573 -0.828527
			 0.606896 -0.152627 -0.779989
			 0.687215 -0.344468 -0.639591
			 0.619240 -0.270827 -0.737017
			 0.770867 -0.270740 -0.576596
			 0.864918 -0.195302 -0.462357
			-0.610548  0.731170  0.304338
			-0.642494  0.118482  0.757076
			-0.219022  0.963887 -0.151498
			 0.838977  0.137738  0.526446
			 0.495852 -0.184546  0.848572
			-0.247551 -0.267625  0.931180
			 0.133951 -0.449681  0.883088
			 0.437184 -0.066746 -0.896892
			 0.539994 -0.161161 -0.826095
			 0.491723 -0.150131 -0.857712
			-0.053070 -0.238716 -0.969638
			-0.059610 -0.046201 -0.997152
			 0.071923 -0.012324 -0.997334
			 0.213642  0.152405 -0.964951
			 0.430377  0.104205 -0.896614
			 0.437159  0.442695 -0.782887
			 0.525749  0.403914 -0.748627
			 0.131370  0.342199 -0.930399
			 0.229037  0.317589 -0.920152
			 0.371102 -0.324469  0.870059
			 0.286558 -0.268263  0.919739
			 0.569886 -0.177640  0.802293
			 0.631888 -0.416997  0.653323
			 0.373847 -0.499297  0.781627
			 0.460783 -0.607382  0.647122
			 0.127949 -0.580394  0.804221
			 0.543442 -0.362229  0.757272
			 0.116726 -0.081598  0.989807
			 0.703851 -0.164988  0.690921
			 0.378055 -0.183772  0.907360
			 0.805493 -0.394405  0.442296
			 0.233393 -0.322867  0.917216
			 0.280813 -0.219538  0.934316
			 0.345967 -0.287721  0.893042
			 0.166953 -0.267265  0.949050
			 0.161032 -0.329723  0.930243
			-0.008012 -0.611706  0.791044
			-0.012651 -0.681995  0.731248
			-0.007646 -0.255960  0.966657
			 0.489527 -0.435652  0.755361
			 0.289072 -0.581851  0.760188
			 0.016667 -0.498887  0.866507
			 0.221948 -0.657898  0.719659
			-0.070825 -0.338115  0.938436
			 0.393535  0.210665 -0.894846
			 0.108428  0.211388 -0.971369
			 0.108719  0.175924 -0.978382
			 0.136621  0.114358 -0.984000
			 0.106333 -0.974480  0.197694
			 0.046049 -0.660383  0.749516
			 0.077702  0.088854 -0.993009
			 0.251153 -0.245377 -0.936329
			 0.198545 -0.952845  0.229491
			-0.101355 -0.564093  0.819467
			 0.021077 -0.844851  0.534586
			-0.132484 -0.328057  0.935322
			-0.733630  0.636143 -0.238976
			-0.796345  0.596578  0.099646
			-0.673341  0.731436 -0.107768
			-0.580275  0.813798 -0.031847
			-0.494493  0.861990 -0.111577
			-0.637340  0.757058  0.143738
			-0.415592  0.900779 -0.126021
			 0.137001  0.973854 -0.181213
			-0.212946  0.974441 -0.071547
			 0.610934  0.746402 -0.263901
			 0.540884  0.802746 -0.251084
			 0.921691  0.234276 -0.309192
			 0.556480 -0.162868 -0.814742
			 0.601982 -0.217870 -0.768212
			 0.718251 -0.345097 -0.604173
			 0.744365 -0.288988 -0.602003
			 0.696045 -0.308188 -0.648491
			 0.654268 -0.284724 -0.700618
			 0.805689  0.334491 -0.488856
			-0.702209  0.652871  0.284011
			-0.323983  0.330119  0.886598
			-0.532487  0.684911  0.497348
			-0.208074 -0.171325  0.962992
			 0.415135 -0.472577  0.777389
			 0.408664 -0.095997 -0.907622
			 0.530895 -0.176818 -0.828786
			 0.380005 -0.032093 -0.924428
			 0.425782  0.002165 -0.904823
			 0.431609  0.149035 -0.889664
			-0.016307  0.173174 -0.984756
			 0.086472 -0.004730 -0.996243
			 0.254537  0.104949 -0.961352
			 0.331867 -0.032041  0.942782
			 0.756750 -0.055534  0.651342
			 0.683142 -0.043604  0.728983
			 0.755536  0.157397  0.635918
			 0.893591 -0.247663  0.374378
			 0.589452 -0.539449  0.601283
			 0.031951 -0.537118  0.842902
			 0.332600 -0.737928  0.587230
			 0.661885 -0.644084  0.383490
			 0.516854  0.066184  0.853511
			 0.191458 -0.386178  0.902336
			-0.217020 -0.241443  0.945837
			 0.057066 -0.465938  0.882975
			 0.417185 -0.110013  0.902138
			 0.241124  0.009053  0.970452
			 0.457829 -0.363732  0.811229
			 0.598701 -0.218018  0.770730
			 0.566582 -0.449677  0.690489
			 0.633004 -0.130822  0.763015
			 0.335746 -0.454787  0.824890
			 0.444210 -0.092558  0.891129
			 0.509923 -0.623205  0.592953
			 0.271799 -0.439167  0.856305
			 0.305908 -0.693708  0.652065
			-0.027324 -0.304016  0.952275
			 0.347344 -0.614441  0.708389
			 0.239619  0.180355 -0.953968
			 0.222631  0.095503 -0.970214
			 0.070716  0.173120 -0.982359
			 0.050542  0.094910 -0.994202
			 0.079968 -0.065368 -0.994652
			 0.220811  0.117860 -0.968169
			 0.724775 -0.599588 -0.339405
			 0.326276 -0.622277  0.711558
			 0.047506 -0.466888  0.883040
			-0.235609 -0.304479  0.922920
			-0.289666  0.798278  0.528059
			 0.083418  0.605545 -0.791427
			-0.833650  0.548396  0.065486
			-0.616360  0.480143  0.624150
			-0.782133  0.456606  0.424003
			-0.813986  0.579144  0.044928
			-0.759841  0.588496  0.276249
			-0.574862  0.795526 -0.191502
			-0.455639  0.889228  0.040831
			-0.593268  0.804155 -0.036985
			-0.562173  0.808255  0.175172
			-0.552342  0.657615  0.512309
			-0.464816  0.779002  0.420835
			-0.481083  0.876662  0.004781
			 0.282934  0.952085 -0.116117
			-0.332947  0.934565 -0.125441
			 0.182931  0.961122 -0.206836
			 0.589610  0.787229 -0.180640
			 0.677993 -0.206108 -0.705582
			 0.630229 -0.263660 -0.730270
			 0.706476 -0.242984 -0.664718
			 0.745959 -0.327452 -0.579931
			 0.839163 -0.272315 -0.470797
			 0.807129 -0.338152 -0.483937
			 0.555692  0.527178 -0.642876
			 0.655814 -0.061514 -0.752412
			 0.782523 -0.265608 -0.563125
			-0.812668  0.581602  0.036182
			-0.243667  0.400739  0.883196
			 0.126824  0.216967  0.967906
			 0.493082 -0.220120 -0.841675
			 0.478226 -0.140530 -0.866920
			 0.352571 -0.035389 -0.935116
			 0.547676 -0.305198 -0.779042
			 0.319605 -0.175919 -0.931077
			 0.611361  0.045261 -0.790056
			 0.371111 -0.193666 -0.908168
			 0.175810 -0.124638 -0.976502
			 0.279915  0.328067 -0.902230
			 0.475003  0.265378  0.839015
			 0.852617  0.418628  0.312722
			 0.989122  0.016807  0.146132
			 0.758726  0.030147  0.650711
			 0.647348 -0.268003  0.713523
			 0.919554 -0.126350  0.372096
			 0.973575  0.178889  0.141952
			 0.987460  0.014500 -0.157199
			 0.878956 -0.476869 -0.005697
			 0.588997 -0.118360  0.799420
			 0.949581 -0.293175  0.111102
			 0.960447  0.113828  0.254134
			 0.986761  0.159659 -0.028481
			 0.717096  0.284044  0.636469
			 0.900912 -0.062856  0.429426
			 0.969916  0.126879  0.207761
			 0.871718 -0.203538  0.445736
			 0.281293 -0.352585  0.892501
			 0.470959 -0.587052  0.658458
			 0.777476 -0.379866  0.501232
			 0.612280 -0.364703  0.701502
			 0.089979 -0.459777  0.883464
			 0.346507 -0.258474  0.901734
			 0.388682 -0.663473  0.639320
			 0.446218 -0.435724  0.781687
			 0.406735 -0.671665  0.619219
			 0.365962 -0.728974  0.578506
			 0.299751 -0.400692  0.865792
			 0.377698 -0.388730  0.840377
			 0.512196 -0.462566  0.723663
			 0.065300 -0.173157 -0.982727
			 0.557235 -0.146649 -0.817302
			 0.101248  0.085406 -0.991189
			 0.128582  0.052338 -0.990317
			 0.078647  0.001177 -0.996902
			 0.433654  0.284692 -0.854924
			 0.446244 -0.131961 -0.885128
			 0.819026 -0.572534 -0.037422
			 0.585386 -0.447353  0.676164
			 0.442856 -0.373769  0.814969
			-0.815163  0.505345  0.283082
			-0.686059  0.511082  0.517801
			-0.275622  0.578666  0.767579
			 0.266704  0.613726  0.743108
			-0.010554  0.463599  0.885982
			-0.873932  0.447974  0.188581
			-0.753921  0.597827  0.272410
			-0.580798  0.604155  0.545591
			-0.568439  0.790100 -0.229389
			-0.482141  0.784998 -0.388997
			-0.404533  0.882235 -0.240860
			-0.700352  0.709326 -0.079774
			-0.287240  0.957677 -0.018648
			-0.368505  0.890752  0.266018
			-0.626409  0.778770  0.033614
			-0.435457  0.562491  0.702838
			-0.338315  0.732867  0.590296
			-0.392525  0.895191 -0.211086
			 0.028016  0.825855 -0.563186
			-0.038646  0.942766 -0.331209
			 0.713099 -0.326824 -0.620222
			 0.641877 -0.339086 -0.687761
			 0.873016 -0.093097 -0.478724
			 0.716648 -0.035935 -0.696508
			 0.404463  0.329060 -0.853305
			 0.849468 -0.193522 -0.490871
			 0.773683 -0.333638 -0.538610
			 0.780969 -0.410032 -0.471128
			 0.525027 -0.301374 -0.795940
			 0.544598 -0.183738 -0.818324
			 0.472811 -0.268643 -0.839215
			 0.415774 -0.156044 -0.895981
			 0.442536 -0.076067 -0.893519
			 0.245445 -0.038561 -0.968643
			 0.597110 -0.430229 -0.677025
			 0.884429 -0.289557 -0.365980
			 0.633404 -0.285389 -0.719272
			 0.420593 -0.471977 -0.774816
			 0.662909 -0.326527 -0.673745
			 0.683497  0.654746  0.322707
			 0.948359 -0.157972  0.275063
			 0.692735  0.422797  0.584261
			 0.981647 -0.176301  0.072715
			 0.928495 -0.146748  0.341118
			 0.731836 -0.266673  0.627138
			 0.969222 -0.108724  0.220880
			 0.856940 -0.220341  0.465943
			 0.873057 -0.078952  0.481184
			 0.820324 -0.492635  0.290482
			 0.780460 -0.318427  0.538040
			 0.787143 -0.181781  0.589374
			 0.481030 -0.384915  0.787687
			 0.483026 -0.551351  0.680219
			 0.797814 -0.429330  0.423282
			 0.584430 -0.441944  0.680534
			 0.630476 -0.425000  0.649519
			 0.556963 -0.592608  0.581901
			 0.264548 -0.497180  0.826333
			 0.339023 -0.501602  0.795902
			 0.569001 -0.550208  0.611154
			 0.673102 -0.000244 -0.739549
			 0.558175 -0.003677 -0.829715
			 0.321662 -0.120694 -0.939131
			 0.626600 -0.437259 -0.645118
			 0.759362 -0.311195  0.571425
			 0.724016 -0.241477  0.646134
			 0.640196 -0.366312  0.675252
			-0.840422  0.456592  0.291917
			-0.699293  0.562898  0.440607
			-0.435249  0.632211  0.640990
			 0.053161  0.603555  0.795547
			-0.742974  0.608894  0.277918
			-0.685619  0.539522  0.488714
			-0.730988  0.629754  0.262807
			-0.861103  0.452540  0.231752
			-0.857604  0.505766  0.093355
			-0.236134  0.937497 -0.255618
			-0.364150  0.832341 -0.417855
			-0.443404  0.895729 -0.032600
			-0.668528  0.743672 -0.004729
			-0.275897  0.872097 -0.404137
			-0.060853  0.953773  0.294303
			-0.086374  0.987300 -0.133333
			-0.241351  0.923873  0.296999
			-0.207271  0.830572  0.516904
			-0.683810  0.676965  0.272252
			-0.626922  0.741656  0.238572
			-0.300431  0.928599 -0.217819
			-0.251258  0.580610  0.774442
			-0.406577  0.351596  0.843253
			-0.642440  0.366904  0.672795
			 0.749400 -0.438653 -0.495967
			 0.692517 -0.373225 -0.617352
			 0.431834  0.697674 -0.571638
			 0.645323  0.553593 -0.526396
			 0.712367  0.157715 -0.683856
			 0.790036 -0.249353 -0.560060
			 0.796264 -0.402545 -0.451576
			 0.565801 -0.296447 -0.769407
			 0.552279 -0.457881 -0.696659
			 0.407433 -0.309319 -0.859255
			 0.425032 -0.354310 -0.832954
			 0.442732 -0.160175 -0.882231
			 0.407087 -0.076932 -0.910144
			 0.322668 -0.017600 -0.946349
			 0.777162 -0.369632 -0.509305
			 0.983082 -0.099756  0.153619
			 0.699476  0.389678  0.599070
			 0.053737  0.730678  0.680604
			 0.994574 -0.066527 -0.079978
			 0.631215 -0.266418  0.728415
			 0.843255 -0.130989  0.521309
			 0.989320 -0.099059  0.106926
			 0.888542 -0.416620  0.192147
			 0.919272 -0.257744  0.297500
			 0.901698 -0.103835  0.419712
			 0.837409 -0.475814  0.268974
			 0.730584 -0.411038  0.545247
			 0.810694 -0.536414  0.234597
			 0.757458 -0.449367  0.473631
			 0.778285 -0.482363  0.401994
			 0.863252 -0.374511  0.338435
			 0.382577 -0.013697 -0.923822
			 0.512879 -0.213165 -0.831574
			 0.601805 -0.459782 -0.653016
			 0.714987 -0.698345 -0.033267
			 0.922660 -0.345527  0.171201
			 0.667513 -0.326208  0.669339
			 0.679582 -0.224562  0.698384
			 0.841611 -0.277894  0.463104
			 0.861086 -0.222148  0.457362
			 0.904558 -0.168615  0.391591
			-0.767267  0.605691  0.210808
			-0.549454  0.736873  0.393852
			-0.095642  0.848446  0.520568
			-0.742287  0.613601  0.269266
			-0.750278  0.593491  0.291294
			-0.664720  0.542414  0.513746
			-0.736328  0.537524  0.410960
			-0.833224  0.315530  0.454068
			-0.915443  0.251798  0.313947
			-0.903599  0.407061  0.133451
			-0.820663  0.462797  0.335159
			-0.756570  0.621464  0.203429
			 0.095720  0.896343 -0.432904
			-0.040072  0.977038 -0.209264
			-0.090656  0.862929 -0.497126
			-0.201861  0.977548 -0.060433
			-0.283733  0.944646  0.164738
			-0.542164  0.824403  0.162537
			-0.076534  0.892827 -0.443850
			 0.226485  0.791117  0.568189
			 0.102116  0.950472  0.293555
			-0.054413  0.987850  0.145575
			 0.053466  0.955098 -0.291426
			-0.002944  0.659005  0.752133
			-0.544358  0.774805  0.321483
			-0.663002  0.692793  0.283664
			-0.528667  0.842610  0.102568
			-0.159581  0.941711 -0.296165
			-0.182622  0.352018  0.918005
			-0.497958  0.273461  0.822956
			 0.665157 -0.511131 -0.544345
			 0.701530 -0.525181 -0.481707
			 0.324801  0.615236 -0.718324
			 0.506373  0.462904 -0.727535
			 0.677247 -0.651161 -0.342529
			 0.082899  0.686058 -0.722808
			 0.599773 -0.089132 -0.795191
			 0.239158  0.276175 -0.930876
			 0.439400  0.046892 -0.897067
			 0.426394 -0.230977 -0.874550
			 0.454504 -0.369116 -0.810666
			 0.394522 -0.493792 -0.774934
			 0.411924 -0.577257 -0.705048
			 0.307332 -0.299044 -0.903393
			 0.418021 -0.157090 -0.894752
			 0.417863 -0.162528 -0.893854
			 0.270578 -0.370901 -0.888381
			 0.499599  0.070437 -0.863388
			 0.548177 -0.022139 -0.836069
			 0.503022 -0.055858 -0.862466
			 0.457014 -0.068451 -0.886821
			 0.312588 -0.122728 -0.941927
			 0.807886 -0.386636 -0.444783
			 0.962483  0.256142  0.089541
			 0.441314  0.724537  0.529422
			 0.976059 -0.199735 -0.086115
			 0.988280 -0.049753 -0.144316
			 0.986237  0.003698 -0.165298
			 0.994503  0.097865  0.037219
			 0.965132  0.257397  0.047607
			 0.938689 -0.340090  0.056587
			 0.971478 -0.216361 -0.097051
			 0.875238 -0.480000  0.059658
			 0.942367 -0.254072  0.217697
			 0.927191 -0.337961  0.161550
			 0.905487 -0.424367 -0.002319
			 0.915103 -0.250671  0.315832
			 0.951639 -0.248682  0.180390
			 0.966943 -0.237473  0.092893
			 0.150122  0.033965 -0.988084
			 0.445825 -0.063828 -0.892841
			 0.680689 -0.417959 -0.601642
			 0.696555 -0.638989 -0.326349
			 0.767267 -0.579593 -0.274543
			 0.671865 -0.441970  0.594357
			 0.673486 -0.612716  0.413516
			 0.927715 -0.348814  0.132942
			 0.959746 -0.153346  0.235314
			 0.958276 -0.153258  0.241287
			 0.940550 -0.136610  0.310973
			-0.335026  0.849928  0.406669
			-0.598304  0.712857  0.365879
			 0.059542  0.891984  0.448129
			 0.632269  0.703386  0.324784
			-0.653816  0.619222  0.434843
			-0.675375  0.702767  0.223576
			-0.506227  0.780810  0.366155
			-0.266574  0.815651  0.513470
			-0.321289  0.477480  0.817794
			-0.631262  0.436669  0.640960
			-0.912223  0.167349  0.373957
			-0.782790  0.230903  0.577861
			-0.882337  0.365406  0.296580
			-0.956613  0.096665  0.274859
			-0.773517  0.561102  0.294680
			 0.122003  0.901055 -0.416192
			 0.070588  0.930781 -0.358698
			 0.097955  0.857597 -0.504908
			-0.120692  0.992480 -0.020406
			-0.136751  0.966624  0.216650
			-0.163292  0.974630  0.153076
			-0.376142  0.902705  0.208906
			 0.328624  0.867578  0.373249
			 0.615837  0.598429  0.512472
			 0.527252  0.451776  0.719656
			 0.228144  0.343396  0.911059
			-0.081152  0.989514  0.119486
			-0.152313  0.979201  0.134041
			 0.166287  0.946506  0.276541
			-0.063739  0.992594 -0.103418
			-0.180020  0.923190  0.339578
			-0.110500  0.973461  0.200407
			-0.598876  0.763694  0.241079
			-0.602216  0.795170  0.070997
			-0.505611  0.856557 -0.103281
			-0.174768  0.854344 -0.489440
			-0.195637  0.241235  0.950543
			-0.188283  0.337100  0.922449
			 0.256926 -0.599402 -0.758094
			 0.324673 -0.457825 -0.827637
			-0.308984  0.746815 -0.588894
			-0.065088  0.611596 -0.788488
			 0.030589  0.335536 -0.941531
			-0.186685  0.553976 -0.811332
			-0.059470  0.246303 -0.967367
			 0.272161 -0.444641 -0.853360
			 0.266566 -0.546345 -0.794009
			 0.360716 -0.199429 -0.911105
			 0.274042 -0.317136 -0.907924
			 0.511320  0.028564 -0.858916
			 0.477584 -0.040815 -0.877638
			 0.335786 -0.202906 -0.919824
			 0.258999 -0.037163 -0.965162
			 0.231072 -0.448260 -0.863521
			 0.537503  0.116745 -0.835142
			 0.428731  0.166409 -0.887974
			 0.550118  0.201699 -0.810362
			 0.600228  0.045617 -0.798527
			 0.652444  0.011730 -0.757746
			 0.524061 -0.018086 -0.851489
			 0.433620 -0.205764 -0.877288
			 0.062804 -0.263800 -0.962531
			 0.953475 -0.269619 -0.134872
			 0.959217 -0.103237 -0.263146
			 0.955430 -0.150011 -0.254265
			 0.928308 -0.273803 -0.251549
			 0.982457  0.117395 -0.144901
			 0.535539  0.713601  0.451632
			 0.906763  0.392208  0.154771
			 0.941396 -0.334898 -0.040204
			 0.972790 -0.229193 -0.033907
			 0.968977 -0.182155  0.167042
			 0.983342 -0.177386 -0.039662
			 0.097011 -0.197358 -0.975520
			 0.027940 -0.319570 -0.947151
			 0.188006 -0.444204 -0.875978
			 0.483408 -0.538684 -0.690026
			 0.795968 -0.527785 -0.296442
			 0.727674 -0.661465  0.181531
			 0.909271 -0.297071 -0.291505
			 0.985816 -0.089581  0.141925
			 0.983534 -0.180721 -0.000836
			 0.986525 -0.133107  0.095134
			 0.973059 -0.098902  0.208265
			 0.987592 -0.155802 -0.019681
			 0.981334 -0.173285  0.083398
			-0.266002  0.843780  0.466131
			-0.526357  0.746350  0.407321
			 0.032748  0.839654  0.542133
			-0.476791  0.564639  0.673686
			-0.616925  0.716823  0.324913
			-0.311404  0.890916  0.330600
			-0.088641  0.864445  0.494851
			 0.300682  0.773588  0.557810
			-0.005851  0.545357  0.838183
			-0.522760  0.225214  0.822193
			-0.895954  0.079272  0.437015
			-0.817685 -0.022633  0.575220
			-0.755082  0.020617  0.655306
			-0.946899  0.271154  0.172797
			-0.924925 -0.218722  0.310924
			-0.995851 -0.040645  0.081412
			-0.845144  0.454954  0.280620
			-0.156479  0.935342 -0.317254
			-0.007101  0.877355 -0.479789
			-0.067387  0.995184 -0.071185
			-0.035293  0.913225 -0.405925
			-0.071604  0.993110  0.092765
			-0.082368  0.990595  0.109257
			-0.134113  0.969590  0.204719
			-0.126146  0.968879 -0.212980
			-0.401128  0.916018  0.002792
			-0.462518  0.878243 -0.121519
			 0.297870  0.906708  0.298588
			 0.712520  0.600418  0.363060
			 0.535556  0.709405  0.458174
			 0.670384  0.295036  0.680837
			 0.332415  0.364772  0.869737
			-0.019182  0.296431  0.954862
			-0.014078  0.993123  0.116223
			-0.148884  0.983019  0.107272
			-0.162383  0.980917  0.106931
			-0.323145  0.942257 -0.087918
			-0.429207  0.899627  0.080335
			-0.414934  0.857611 -0.303864
			 0.103707 -0.459815 -0.881938
			 0.147010 -0.460424 -0.875442
			 0.024291 -0.275708 -0.960935
			-0.361012  0.602884 -0.711478
			-0.211455  0.028710 -0.976966
			 0.291272 -0.534076 -0.793677
			 0.182098 -0.302792 -0.935498
			 0.431846 -0.416031 -0.800267
			 0.418695  0.112235 -0.901165
			 0.385076 -0.408678 -0.827465
			 0.225273 -0.379685 -0.897269
			 0.072026 -0.195705 -0.978014
			-0.035271 -0.084022 -0.995839
			 0.107549  0.036050 -0.993546
			 0.245020  0.044267 -0.968507
			 0.214770  0.107874 -0.970689
			 0.143193  0.149344 -0.978362
			 0.454242  0.210272 -0.865707
			 0.653289  0.167999 -0.738235
			 0.664450  0.146113 -0.732910
			 0.786314 -0.026884 -0.617242
			 0.598899 -0.079904 -0.796828
			 0.563107 -0.082374 -0.822268
			 0.628689 -0.274332 -0.727662
			 0.214130 -0.479477 -0.851029
			 0.954933 -0.152414 -0.254701
			 0.944966 -0.208001 -0.252537
			 0.968914 -0.031321 -0.245406
			 0.923152 -0.140554 -0.357820
			 0.921598 -0.067161 -0.382291
			 0.941675  0.035042 -0.334694
			 0.923060 -0.096098 -0.372459
			 0.976699  0.163988 -0.138447
			 0.171512  0.823640  0.540556
			 0.420112  0.752827  0.506712
			 0.643594  0.643288  0.414690
			 0.877177  0.463234  0.126394
			 0.962292 -0.190060 -0.194604
			 0.951809 -0.304957 -0.032572
			 0.988246 -0.152230 -0.013999
			-0.065774 -0.485655 -0.871673
			 0.756570 -0.362250 -0.544406
			 0.936267 -0.257765 -0.238664
			 0.951415 -0.259608  0.165571
			 0.946163 -0.230125  0.227635
			 0.961578 -0.240460  0.132462
			 0.959891 -0.280362  0.002557
			 0.987970 -0.099442  0.118435
			 0.978977 -0.169709  0.113149
			 0.993038 -0.097420  0.066222
			 0.986990 -0.044378  0.154538
			 0.041202  0.825863  0.562364
			-0.542919  0.704179  0.457572
			-0.221060  0.818430  0.530382
			-0.244891  0.675610  0.695399
			-0.443491  0.788188  0.426702
			-0.289754  0.411355  0.864193
			 0.470324  0.813575  0.341894
			 0.038463  0.930832  0.363417
			-0.022926  0.879529  0.475292
			 0.464403  0.751166  0.469127