<?xml version="1.0"?>
<VTKFile type="PolyData" version="0.1" byte_order="LittleEndian" compressor="vtkZLibDataCompressor">
	<PolyData>
		<Piece NumberOfPoints="3991" NumberOfVerts="0" NumberOfLines="0" NumberOfStrips="0" NumberOfPolys="7978">
		<PointData Normals="Normals">
		<DataArray type="Float32" Name="Normals" NumberOfComponents="3" format="ascii">
			-0.522073 -0.138906  0.841514
			 0.168473 -0.226524  0.959325
			 0.120812 -0.261949  0.957490
			-0.060873 -0.236029  0.969838
			-0.476947  0.266379  0.837594
			-0.298953 -0.299409  0.906080
			-0.581647 -0.344273  0.736996
			-0.758392  0.000032  0.651798
			-0.724328 -0.176319  0.666528
			 0.001448 -0.132174  0.991225
			 0.280170  0.407204  0.869304
			 0.349483  0.657376  0.667621
			 0.532182 -0.228251  0.815281
			 0.068190 -0.274329  0.959215
			 0.454201 -0.315542  0.833148
			-0.745376  0.229975  0.625720
			-0.575256  0.628286  0.523772
			-0.052473  0.857528  0.511755
			-0.158035 -0.381966  0.910564
			-0.425783 -0.444887  0.787899
			-0.639051 -0.419889  0.644443
			-0.677939 -0.413582  0.607741
			-0.793918 -0.151470  0.588855
			-0.500888 -0.021502  0.865245
			-0.742591  0.128014  0.657397
			-0.382582 -0.463043  0.799514
			-0.566839  0.464292  0.680535
			-0.837016  0.323654  0.441194
			-0.900932  0.105321  0.420986
			 0.160299  0.892787  0.420993
			-0.431197  0.768045  0.473472
			 0.329128  0.898613  0.290120
			 0.323558  0.903770  0.280196
			-0.824275 -0.000085  0.566190
			-0.096704 -0.058233  0.993608
			 0.179064 -0.410608  0.894057
			-0.203285 -0.622716  0.755579
			-0.795625  0.147242  0.587623
			-0.748360  0.512685  0.420845
			-0.753888  0.501792  0.424096
			-0.493739  0.852245  0.172917
			-0.278779  0.912907  0.298132
			 0.110187  0.953088  0.281927
			-0.215648 -0.369663  0.903795
			 0.041939 -0.401644  0.914835
			-0.554218 -0.345272  0.757383
			-0.411781 -0.343765  0.843956
			-0.605662 -0.483980  0.631614
			-0.711363 -0.240329  0.660458
			-0.642108 -0.327473  0.693152
			-0.660318 -0.267716  0.701647
			-0.444598 -0.537212  0.716754
			-0.759261 -0.291585  0.581808
			-0.404490 -0.235557  0.883686
			 0.253846 -0.220791  0.941708
			 0.111613 -0.357299  0.927297
			-0.144474 -0.339405  0.929479
			-0.759489  0.418101  0.498366
			-0.832585  0.196681  0.517802
			-0.902308  0.010460  0.430965
			-0.827687  0.071329  0.556639
			-0.813334 -0.058477  0.578851
			 0.078503  0.942196  0.325737
			-0.611977  0.672442  0.416301
			-0.246462  0.930776  0.270022
			 0.324167  0.931865  0.162920
			 0.188927  0.976451  0.104168
			-0.905671 -0.094683  0.413274
			-0.578333 -0.400060  0.710973
			-0.078323 -0.451804  0.888672
			 0.091570 -0.479177  0.872929
			-0.792142  0.180285  0.583102
			-0.611637  0.619795  0.491685
			-0.504097  0.854137  0.127808
			-0.482382  0.874571  0.049334
			-0.580640  0.788189  0.203998
			-0.353046  0.935605 -0.001009
			-0.204576  0.978835  0.005641
			-0.069877  0.982554  0.172350
			 0.005237  0.976020  0.217617
			 0.178198  0.975936  0.125675
			-0.122879 -0.374107  0.919209
			-0.270297 -0.274650  0.922771
			-0.351468 -0.299213  0.887097
			-0.013315 -0.444362  0.895748
			-0.513770 -0.211912  0.831345
			-0.624700 -0.184132  0.758845
			-0.496737 -0.428623  0.754676
			-0.633398 -0.184409  0.751532
			-0.694569 -0.121050  0.709170
			-0.717374 -0.172358  0.675032
			-0.499945 -0.221305  0.837305
			-0.291283 -0.332737  0.896906
			 0.132465 -0.366149  0.921080
			 0.256948 -0.134644  0.957000
			 0.432306  0.003021  0.901722
			-0.318387  0.543789  0.776482
			 0.255823 -0.326458  0.909934
			 0.389912 -0.213471  0.895767
			 0.070082 -0.195608  0.978175
			 0.331308 -0.159354  0.929968
			 0.106110 -0.296722  0.949051
			 0.207992 -0.566816  0.797157
			-0.771752  0.290516  0.565685
			-0.690399  0.634156  0.348132
			-0.766589  0.456239  0.451871
			-0.768972  0.168759  0.616606
			-0.756977  0.079112  0.648635
			-0.714367  0.039272  0.698669
			-0.502462 -0.213526  0.837818
			-0.555931 -0.353849  0.752152
			-0.669631 -0.034858  0.741875
			-0.491031  0.841228  0.226327
			-0.140029  0.990147  0.000428
			 0.224269  0.973895 -0.035105
			 0.136841  0.984826 -0.106736
			-0.239019 -0.522412  0.818508
			-0.036736 -0.483715  0.874455
			-0.121040 -0.516434  0.847730
			-0.563184  0.695534  0.446159
			-0.157671  0.902901  0.399888
			-0.093568  0.974804  0.202491
			-0.066523  0.983319 -0.169288
			 0.053318  0.989162 -0.136807
			 0.029325  0.998903  0.036523
			 0.029201  0.984197  0.174655
			 0.092890  0.969816  0.225450
			 0.070505  0.950377  0.303005
			-0.108087  0.977108  0.183242
			-0.046351  0.995819  0.078718
			 0.078752  0.996892 -0.002119
			-0.093972 -0.437003  0.894538
			-0.409702 -0.187762  0.892687
			-0.279852 -0.148025  0.948563
			-0.410184 -0.086552  0.907887
			-0.155436 -0.297985  0.941831
			-0.520606 -0.077186  0.850301
			-0.614547 -0.094089  0.783249
			-0.708964 -0.083282  0.700310
			-0.455459 -0.116729  0.882571
			-0.676337 -0.064714  0.733744
			-0.449115 -0.096462  0.888252
			-0.760277 -0.051474  0.647557
			-0.760888 -0.073324  0.644727
			-0.286494 -0.151108  0.946091
			 0.152964  0.363095  0.919111
			 0.472653  0.537303  0.698502
			 0.387899  0.785324  0.482494
			 0.331363 -0.310838  0.890830
			 0.114965 -0.104033  0.987907
			 0.325851 -0.094220  0.940714
			 0.411633 -0.136279  0.901103
			 0.369779 -0.162999  0.914710
			 0.157852 -0.145028  0.976755
			 0.098310 -0.680751  0.725888
			 0.140368 -0.347155  0.927243
			-0.768221  0.340071  0.542391
			-0.585107  0.810346  0.031450
			-0.760993  0.624628  0.175298
			-0.687954  0.148581  0.710383
			-0.566231  0.039488  0.823300
			-0.379117 -0.422323  0.823355
			-0.410358 -0.108513  0.905446
			-0.252083 -0.302347  0.919261
			-0.297120 -0.181160  0.937497
			-0.386382  0.921765  0.032527
			-0.059021  0.964233 -0.258401
			-0.312302  0.934201 -0.172442
			 0.008303  0.991508 -0.129782
			 0.053001  0.971602 -0.230610
			-0.077365 -0.441392  0.893973
			 0.225301  0.916277  0.331175
			 0.101864  0.994281 -0.032067
			 0.036619  0.986679 -0.158502
			 0.200803  0.934504 -0.293906
			 0.194318  0.936117 -0.293132
			 0.200094  0.963792 -0.176258
			 0.204002  0.978927 -0.009201
			 0.187394  0.973522  0.130917
			 0.209799  0.943616  0.256072
			 0.181007  0.898984  0.398827
			 0.089080  0.908276  0.408779
			-0.021426  0.950028  0.311430
			-0.165022  0.984737  0.055321
			-0.146481  0.969763  0.195201
			-0.209113  0.974838  0.077223
			-0.062835  0.997972  0.010231
			 0.018938 -0.349735  0.936657
			-0.293152 -0.022784  0.955794
			-0.192820 -0.053162  0.979793
			-0.097419 -0.135562  0.985968
			-0.530613  0.039156  0.846710
			-0.386894  0.029300  0.921659
			-0.668374 -0.023620  0.743450
			-0.576891 -0.007770  0.816784
			-0.758930 -0.002227  0.651168
			-0.166658 -0.079160  0.982832
			-0.047141 -0.077941  0.995843
			-0.498720 -0.026359  0.866363
			-0.723401  0.000925  0.690428
			-0.035789 -0.152818  0.987606
			 0.081742 -0.131161  0.987985
			 0.175877  0.763068  0.621928
			 0.389968  0.807912  0.441818
			 0.238439 -0.421898  0.874728
			 0.423700 -0.084588  0.901844
			 0.453176 -0.383715  0.804608
			 0.488289 -0.266019  0.831148
			 0.621757 -0.166100  0.765394
			 0.360183  0.478643  0.800730
			 0.013492  0.086589  0.996153
			 0.554757 -0.258900  0.790706
			 0.405492 -0.246041  0.880364
			 0.251227  0.686191  0.682661
			-0.729386  0.263158  0.631462
			-0.845496  0.476171  0.241656
			-0.519374  0.818963 -0.244030
			-0.723492  0.652863 -0.224342
			-0.536701 -0.022348  0.843476
			-0.771669  0.158468  0.615966
			-0.334630 -0.073338  0.939492
			-0.111652 -0.370573  0.922068
			-0.162413 -0.270366  0.948959
			-0.225950 -0.246960  0.942315
			-0.421343 -0.121395  0.898740
			-0.121599  0.900524 -0.417456
			-0.211703  0.865117 -0.454703
			-0.189296  0.981355 -0.033300
			-0.360366  0.861385 -0.357983
			 0.075786 -0.393531  0.916182
			 0.266132  0.957334  0.112628
			 0.355986  0.928630 -0.104501
			 0.266512  0.927173 -0.263290
			 0.225794  0.931433 -0.285394
			 0.232835  0.964225 -0.126717
			 0.263132  0.964700  0.010711
			 0.214422  0.959979  0.180177
			 0.214587  0.915737  0.339674
			 0.130283  0.851726  0.507532
			 0.090470  0.853836  0.512620
			-0.019757  0.913674  0.405968
			-0.212522  0.973679  0.082361
			-0.158961  0.931159  0.328137
			-0.203795  0.964148  0.169962
			-0.166257  0.976943  0.133947
			-0.045146 -0.181047  0.982438
			-0.040474 -0.301275  0.952678
			-0.315442  0.024338  0.948633
			-0.258642 -0.014752  0.965861
			-0.217459 -0.086645  0.972216
			-0.274438 -0.201037  0.940355
			-0.473368  0.082338  0.877008
			-0.568704  0.109747  0.815188
			-0.667262  0.113883  0.736066
			-0.695230  0.057396  0.716492
			-0.408484  0.050465  0.911369
			-0.764667  0.105914  0.635663
			 0.333911 -0.058807  0.940768
			-0.039618 -0.070326  0.996737
			-0.679652  0.111830  0.724960
			-0.337013  0.022925  0.941221
			 0.347151 -0.160085  0.924045
			 0.430051 -0.174146  0.885849
			 0.518612 -0.073027  0.851885
			 0.215082  0.933314  0.287516
			 0.311853  0.910995  0.269881
			 0.160425 -0.482727  0.860952
			 0.659971 -0.042443  0.750091
			 0.495760 -0.536909  0.682606
			 0.578013 -0.298546  0.759455
			 0.650581 -0.216422  0.727946
			 0.714773 -0.415702  0.562398
			 0.691119 -0.507362  0.514722
			 0.712495 -0.064941  0.698665
			 0.590511  0.651716  0.475987
			 0.730346  0.568195  0.379144
			 0.762076  0.496792  0.415257
			 0.773537  0.012607  0.633625
			 0.446033  0.869690  0.211411
			-0.859642  0.338283  0.382858
			-0.782765  0.616776 -0.082862
			-0.867201  0.492077  0.076307
			-0.905705  0.384467  0.178561
			-0.519146  0.757589 -0.395659
			-0.595781  0.793696 -0.122851
			-0.720749  0.670458 -0.176091
			-0.822792 -0.016789  0.568095
			-0.945797  0.093735  0.310937
			-0.919934  0.250331  0.301754
			-0.393984 -0.422701  0.816150
			-0.467192 -0.517366  0.716983
			-0.388709 -0.407637  0.826279
			-0.505774 -0.285645  0.814002
			-0.782271 -0.174074  0.598122
			-0.233724  0.756315 -0.611032
			-0.055198  0.886339 -0.459734
			-0.555585  0.830272  0.044428
			-0.716908  0.697145 -0.005648
			-0.478686  0.790064 -0.382961
			-0.531144  0.827609 -0.181519
			 0.423950  0.905229 -0.028750
			 0.236766  0.968675 -0.074901
			 0.194427  0.963673 -0.183117
			 0.160516  0.986949  0.012897
			 0.162877  0.975205  0.149820
			 0.091996  0.916404  0.389540
			-0.021909  0.766946  0.641338
			-0.059076  0.815442  0.575816
			-0.219530  0.965527  0.139872
			-0.197454  0.970632  0.137426
			-0.174809  0.798302  0.576330
			-0.266020  0.896721  0.353731
			-0.241439  0.953384  0.181017
			-0.134786  0.960175  0.244737
			-0.152738  0.952180  0.264621
			-0.437765  0.875700  0.203743
			-0.366953  0.925573  0.093063
			-0.258591 -0.265639  0.928745
			-0.489552 -0.045472  0.870788
			-0.450841 -0.147464  0.880339
			-0.426171 -0.243473  0.871263
			-0.563322 -0.375039  0.736216
			-0.496053  0.094065  0.863182
			-0.685753  0.157245  0.710645
			-0.562367  0.116267  0.818673
			-0.742712  0.140876  0.654624
			-0.760477  0.129212  0.636380
			-0.534251  0.015208  0.845189
			-0.758292  0.164660  0.630777
			-0.739617  0.178180  0.649014
			 0.154414 -0.093107  0.983610
			-0.501131  0.096639  0.859959
			-0.114492 -0.022413  0.993171
			 0.485844 -0.139845  0.862786
			 0.593094 -0.182253  0.784235
			 0.659479 -0.098012  0.745306
			 0.569449 -0.414405  0.709927
			 0.748674 -0.040849  0.661679
			 0.850823 -0.355781  0.386677
			 0.776472 -0.061668  0.627127
			 0.800825 -0.193569  0.566754
			 0.766676 -0.500964  0.401552
			 0.809871 -0.474677  0.344660
			 0.855386 -0.345133  0.386261
			 0.835036 -0.432043  0.340666
			 0.556972  0.804858  0.204903
			 0.620774  0.767145  0.161644
			 0.748746  0.618089  0.239470
			 0.944608 -0.062722  0.322151
			 0.903319  0.352902  0.243875
			-0.748310  0.663312 -0.007043
			-0.840101  0.520042  0.154233
			-0.940794  0.193530  0.278303
			-0.758429  0.446788  0.474516
			-0.514785  0.850754 -0.105892
			-0.595307  0.752596  0.281440
			-0.452326  0.887163  0.091341
			-0.961300  0.041551  0.272352
			-0.954762 -0.017514  0.296855
			-0.960045  0.063117  0.272636
			-0.590994 -0.567323  0.573472
			-0.699124 -0.527433  0.482743
			-0.665595 -0.562481  0.490509
			-0.744810 -0.423886  0.515343
			-0.773336 -0.300076  0.558485
			-0.933127 -0.153152  0.325298
			-0.302201  0.900128 -0.313758
			 0.083456  0.993668  0.075234
			-0.061635  0.992396  0.106541
			-0.643083  0.698619  0.313649
			-0.564656  0.771818  0.292336
			 0.426879  0.900508  0.082828
			 0.172578  0.966454  0.190218
			 0.164040  0.957464  0.237389
			 0.102881  0.901507  0.420357
			 0.084143  0.830425  0.550741
			 0.051291  0.692256  0.719827
			-0.097879  0.696188  0.711155
			-0.172753  0.698592  0.694353
			-0.196961  0.979255  0.047604
			-0.094647  0.994864  0.035883
			-0.134684  0.977475  0.162489
			-0.204473  0.945586  0.253097
			-0.033006  0.643447  0.764779
			-0.164641  0.790207  0.590310
			-0.252554  0.919806  0.300290
			-0.283543  0.952009  0.115245
			-0.260042  0.965349  0.021916
			-0.136942  0.943952  0.300337
			-0.151455  0.955952  0.251431
			-0.338983  0.923919  0.177381
			-0.549373  0.775300  0.311607
			-0.505913  0.862159 -0.027071
			-0.564555  0.824003  0.047926
			-0.592012  0.797377 -0.117098
			-0.745133 -0.056509  0.664518
			-0.784667 -0.143712  0.603030
			-0.735581 -0.248133  0.630358
			-0.618148 -0.287807  0.731478
			-0.770231 -0.419741  0.480169
			-0.554662  0.079347  0.828284
			-0.513317  0.082729  0.854202
			-0.647305  0.027495  0.761735
			-0.791743  0.155663  0.590688
			-0.759221  0.179139  0.625693
			-0.816690  0.201337  0.540814
			-0.701563  0.144610  0.697780
			-0.811804  0.204518  0.546943
			-0.608036  0.127192  0.783654
			-0.808094  0.169298  0.564200
			-0.677234  0.158136  0.718573
			-0.804947  0.171509  0.568019
			 0.248271 -0.082257  0.965192
			-0.037029 -0.020386  0.999106
			-0.278101  0.067138  0.958203
			 0.432658 -0.086459  0.897403
			 0.617953 -0.108863  0.778642
			 0.706922 -0.173640  0.685646
			 0.740040 -0.155291  0.654389
			 0.821368 -0.148759  0.550659
			 0.984383  0.012181  0.175618
			 0.961194 -0.208174  0.181024
			 0.880628 -0.166845  0.443461
			 0.897463 -0.229420  0.376733
			 0.827544 -0.526874  0.193840
			 0.880662 -0.454205  0.134657
			 0.932895 -0.305354  0.190961
			 0.901505 -0.406942  0.147262
			 0.680463  0.714996  0.160472
			 0.943579  0.281760  0.173982
			 0.769261  0.614133  0.176289
			-0.864343  0.027942  0.502126
			-0.786685  0.189642  0.587506
			-0.454755  0.615893  0.643331
			-0.572238  0.443646  0.689726
			-0.664628  0.286647  0.690002
			-0.269989  0.862912  0.427187
			-0.959229 -0.033624  0.280622
			-0.886969  0.046710  0.459461
			-0.648611 -0.615805  0.447312
			-0.777011 -0.363693  0.513791
			-0.627440 -0.539034  0.561927
			-0.745678 -0.464184  0.478015
			-0.834483 -0.275022  0.477495
			-0.913093 -0.209329  0.349918
			-0.266258  0.884935  0.382096
			-0.167828  0.892024  0.419674
			-0.020150  0.999231  0.033640
			-0.098008  0.835266  0.541041
			 0.118197  0.992530  0.030210
			-0.463035  0.815628  0.346913
			-0.368023  0.805957  0.463673
			 0.505504  0.846438  0.167356
			 0.314681  0.916439  0.247218
			 0.322879  0.870393  0.371706
			 0.128980  0.912542  0.388112
			 0.252460  0.759006  0.600145
			 0.334805  0.507977  0.793640
			-0.244242  0.963231 -0.111944
			-0.146052  0.955427 -0.256568
			-0.069326  0.990436 -0.119289
			 0.006924  0.978648 -0.205428
			 0.004444  0.995901 -0.090338
			-0.126973  0.970023  0.207202
			-0.032186  0.999283  0.019929
			 0.154098  0.618243  0.770733
			-0.138276  0.932064  0.334869
			-0.170511  0.985219  0.016396
			-0.180583  0.981159 -0.068672
			-0.168371  0.966903 -0.191703
			-0.047814  0.985760  0.161218
			-0.069734  0.985599  0.154052
			-0.237538  0.949128  0.206719
			-0.411504  0.885348  0.216389
			-0.542215  0.820025  0.183199
			-0.542466  0.839839 -0.020031
			-0.620502  0.734582 -0.274529
			-0.760824  0.639839 -0.108411
			-0.754195  0.649336  0.097736
			-0.909729 -0.107294  0.401101
			-0.921258 -0.173302  0.348210
			-0.898629 -0.373626  0.229933
			-0.842705 -0.323850  0.430080
			-0.639200  0.093181  0.763374
			-0.747002  0.046722  0.663178
			-0.875338 -0.049905  0.480929
			-0.813081  0.176747  0.554671
			-0.834842  0.186756  0.517843
			-0.818722  0.149890  0.554281
			-0.770473  0.169640  0.614487
			-0.852397  0.194151  0.485515
			-0.813201  0.214092  0.541174
			-0.804827  0.078386  0.588311
			-0.749301  0.076558  0.657790
			-0.674876  0.114384  0.729012
			-0.819910  0.221288  0.527996
			-0.726024  0.192147  0.660279
			-0.469868  0.135101  0.872337
			 0.243894 -0.051893  0.968412
			 0.081433 -0.009520  0.996633
			-0.103457  0.045225  0.993605
			 0.538119 -0.071463  0.839834
			 0.362570 -0.043004  0.930964
			 0.707905 -0.072059  0.702623
			 0.778876 -0.125769  0.614439
			 0.811687 -0.164521  0.560443
			 0.878628 -0.154414  0.451852
			 0.946624  0.319835  0.040119
			 0.996683 -0.066199 -0.047344
			 0.943576 -0.327982 -0.045750
			 0.939880 -0.191722  0.282609
			 0.840066 -0.529170 -0.119446
			 0.856367 -0.516027 -0.018771
			 0.919569 -0.379325 -0.102499
			 0.972301 -0.230004  0.041577
			 0.526900  0.821265  0.218859
			 0.785228  0.610374  0.104216
			-0.710138 -0.006724  0.704031
			-0.790698 -0.003517  0.612196
			-0.678968  0.145962  0.719512
			-0.299206  0.781151  0.547977
			-0.627695  0.467028  0.622803
			-0.633648  0.249551  0.732266
			-0.889206 -0.051675  0.454579
			-0.793875  0.043405  0.606530
			-0.418251 -0.525819  0.740663
			-0.743952 -0.337089  0.576980
			-0.639611 -0.423814  0.641311
			-0.552974 -0.241314  0.797488
			-0.347293 -0.304770  0.886850
			-0.644536 -0.351429  0.679022
			-0.737032 -0.077487  0.671401
			-0.374862  0.926943 -0.015957
			-0.230236  0.536453 -0.811917
			 0.151622  0.951786  0.266671
			 0.383251  0.732203 -0.563025
			 0.759449  0.643292  0.097020
			 0.567751  0.701869  0.430161
			 0.529660  0.587570  0.611736
			 0.738006  0.213702  0.640061
			 0.602989  0.273896  0.749256
			-0.165069  0.925610 -0.340585
			-0.088556  0.821908 -0.562694
			 0.005664  0.856483 -0.516144
			 0.001758  0.930713 -0.365746
			 0.139707  0.925216 -0.352786
			 0.096348  0.981882 -0.163169
			 0.058438  0.998077 -0.020658
			 0.498120  0.663919  0.557753
			 0.058338  0.839484  0.540244
			 0.159198  0.969274  0.187520
			-0.031537  0.995967 -0.083990
			-0.032046  0.974913 -0.220268
			-0.040829  0.901811 -0.430197
			 0.126677  0.991133  0.040104
			 0.006653  0.990928  0.134227
			-0.235239  0.952202  0.194871
			-0.633562  0.749679  0.191259
			-0.488035  0.846512  0.212696
			-0.540374  0.723068 -0.430312
			-0.799409  0.576400 -0.169433
			-0.841221  0.539167 -0.040581
			-0.905066  0.421995 -0.052688
			-0.876714  0.480519  0.021775
			-0.982272 -0.171457 -0.075786
			-0.964419 -0.241637 -0.107272
			-0.961156 -0.273150 -0.039600
			-0.918987 -0.383862 -0.090073
			-0.804269 -0.593774 -0.024164
			-0.765282 -0.543334 -0.345154
			-0.752243 -0.652604  0.090760
			-0.811774  0.035041  0.582920
			-0.936135  0.004402  0.351614
			-0.989102 -0.044481  0.140355
			-0.801611  0.168921  0.573486
			-0.801250  0.131137  0.583781
			-0.884271  0.107231  0.454496
			-0.846487  0.078713  0.526558
			-0.623308  0.124389  0.772020
			-0.453461  0.088519  0.886870
			-0.537736  0.119885  0.834546
			-0.647343  0.190726  0.737950
			-0.921645  0.015930  0.387706
			-0.890869  0.020859  0.453782
			-0.347333  0.108978  0.931388
			 0.230974 -0.024841  0.972643
			 0.051880 -0.007252  0.998627
			 0.625365 -0.055759  0.778338
			 0.483256 -0.046078  0.874266
			 0.305832 -0.036645  0.951380
			 0.416391 -0.038037  0.908390
			 0.805165 -0.052718  0.590703
			 0.860463 -0.092426  0.501060
			 0.935026 -0.114693  0.335516
			 0.975395  0.102444 -0.195215
			 0.910763  0.404431 -0.083345
			 0.929973 -0.263284 -0.256576
			 0.961534 -0.131520 -0.241153
			 0.873142 -0.437745 -0.214481
			 0.987931 -0.122656  0.094591
			 0.739620 -0.557386 -0.377204
			 0.806051 -0.542446 -0.236716
			 0.833168 -0.448912 -0.322968
			 0.939013 -0.265799 -0.218189
			 0.859604 -0.318514 -0.399537
			 0.970360 -0.161268 -0.179983
			-0.713869  0.037474  0.699275
			-0.716629  0.003594  0.697445
			-0.721158 -0.050220  0.690948
			-0.699164  0.071709  0.711356
			-0.400778  0.875570  0.269731
			 0.141764  0.961663 -0.234748
			-0.753964  0.255184  0.605326
			-0.788507  0.511413  0.341633
			-0.858841  0.361542  0.362877
			-0.688676  0.043624  0.723755
			-0.286711 -0.194306  0.938106
			-0.437487 -0.292263  0.850404
			-0.391265 -0.468073  0.792350
			-0.402278 -0.912844  0.069915
			-0.512357 -0.850138 -0.121476
			-0.330158 -0.568596  0.753455
			-0.179709 -0.207879  0.961504
			-0.591406 -0.185946  0.784642
			-0.560834 -0.046719  0.826609
			-0.276435 -0.224128 -0.934532
			 0.011522 -0.260672 -0.965359
			-0.785608 -0.238608 -0.570865
			 0.338307  0.002309 -0.941033
			-0.850603  0.349984 -0.392411
			 0.472382  0.614823 -0.631544
			 0.535099  0.309102 -0.786209
			 0.941004  0.314335 -0.125323
			 0.872078  0.469410  0.138325
			 0.785919  0.430133  0.444203
			 0.903715  0.041775  0.426091
			 0.875022 -0.096517  0.474364
			 0.816981  0.170288  0.550948
			 0.702159  0.479486  0.526370
			-0.042059  0.799710 -0.598912
			-0.054626  0.785622 -0.616291
			 0.030733  0.816364 -0.576719
			 0.163279  0.830565 -0.532449
			 0.198206  0.860918 -0.468546
			 0.313365  0.883921 -0.347112
			 0.218543  0.957313 -0.189186
			 0.547630  0.804477  0.230042
			 0.274542  0.954405 -0.117212
			 0.072106  0.940260 -0.332734
			 0.136856  0.865238 -0.482321
			 0.289680  0.957078 -0.009356
			 0.202466  0.976655  0.071786
			 0.144082  0.977282  0.155436
			-0.204616  0.955992  0.210264
			-0.515412  0.844995  0.142597
			-0.771078  0.629966  0.092636
			-0.922850  0.370540 -0.105110
			-0.894652  0.350405 -0.277153
			-0.956531  0.212476 -0.199755
			-0.953604  0.265115 -0.142665
			-0.878426 -0.124893 -0.461270
			-0.805410 -0.225432 -0.548175
			-0.718697 -0.394388 -0.572654
			-0.530573 -0.631503 -0.565417
			-0.361495 -0.470735 -0.804817
			-0.327813 -0.666848 -0.669218
			-0.987894 -0.050962  0.146518
			-0.966805 -0.048848  0.250803
			-0.987723 -0.082279 -0.132790
			-0.545191  0.089996  0.833467
			-0.854599  0.130226  0.502694
			-0.675130  0.099921  0.730900
			-0.915424  0.130195  0.380851
			-0.493364  0.069851  0.867013
			-0.933489  0.099761  0.344451
			-0.915797  0.044708  0.399146
			-0.290665  0.050512  0.955491
			-0.120518  0.017585  0.992555
			-0.244150  0.061733  0.967770
			-0.958971  0.000563  0.283502
			-0.997166 -0.024033  0.071287
			-0.990912 -0.026570  0.131858
			 0.171155 -0.015928  0.985115
			 0.069950 -0.010189  0.997498
			 0.537369 -0.038693  0.842459
			 0.706100 -0.057202  0.705798
			 0.377939 -0.024841  0.925497
			 0.275097 -0.010821  0.961356
			 0.857726 -0.062924  0.510241
			 0.936655 -0.052296  0.346326
			 0.961193 -0.060143  0.269240
			 0.949210 -0.125639 -0.288472
			 0.987103  0.068109 -0.144872
			 0.846047 -0.411289 -0.339185
			 0.908842 -0.283427 -0.306065
			 0.991180 -0.072424 -0.110980
			 0.758269 -0.547631 -0.353735
			 0.594164 -0.654881 -0.467012
			 0.745466 -0.367724 -0.555931
			 0.608183 -0.529499 -0.591392
			 0.878592 -0.190748 -0.437826
			 0.806164 -0.200756 -0.556593
			 0.920763 -0.101580 -0.376665
			-0.742871  0.065450  0.666228
			-0.694798  0.058909  0.716788
			-0.922371 -0.063900  0.380983
			-0.852853  0.009940  0.522056
			-0.820802  0.113688  0.559785
			 0.245226  0.919971 -0.305806
			-0.467864  0.875731  0.119158
			-0.903442  0.240266  0.355057
			-0.900256  0.309372 -0.306314
			-0.885888  0.463197  0.025503
			-0.825590  0.152498 -0.543273
			-0.646886  0.043997  0.761317
			-0.882851  0.042836  0.467695
			-0.747427  0.077090  0.659856
			-0.866762  0.067213  0.494173
			-0.427515 -0.097027  0.898786
			-0.194362 -0.353541  0.915004
			-0.108906 -0.585141 -0.803585
			 0.097074 -0.508749 -0.855424
			 0.053036 -0.831703 -0.552682
			-0.152352 -0.926827  0.343192
			 0.151444 -0.915752  0.372106
			-0.082750 -0.286303 -0.954559
			-0.173786 -0.326460 -0.929097
			-0.310982 -0.500230 -0.808121
			 0.207925 -0.361450 -0.908912
			 0.060470 -0.323902 -0.944156
			-0.508252 -0.740595 -0.439544
			-0.657584 -0.623950 -0.422219
			-0.980319  0.151592 -0.126470
			-0.919490 -0.135131 -0.369158
			 0.116401 -0.205526 -0.971704
			-0.056761  0.684844 -0.726475
			 0.972250  0.233252  0.017984
			 0.936110  0.283328  0.208381
			 0.988611  0.021232  0.148990
			 0.933544 -0.179492  0.310288
			 0.910449 -0.301143  0.283543
			 0.936534 -0.105286  0.334394
			 0.940029  0.151398  0.305654
			 0.848480  0.448301  0.281263
			 0.658359  0.714704  0.236139
			 0.188416  0.832313 -0.521300
			-0.026289  0.705424 -0.708298
			 0.053348  0.747287 -0.662356
			 0.059392  0.884112 -0.463485
			 0.054823  0.907872 -0.415648
			 0.170242  0.901414 -0.398084
			 0.323184  0.872752 -0.365863
			 0.391002  0.867410 -0.307764
			 0.420336  0.894409 -0.152806
			 0.608870  0.787065 -0.099019
			 0.281423  0.893465 -0.350030
			 0.524335  0.742492 -0.416866
			 0.359229  0.933171  0.012139
			 0.405517  0.904190  0.134152
			 0.278940  0.869282  0.408094
			 0.018429  0.937486  0.347535
			-0.600340  0.795080  0.086249
			-0.314901  0.928511  0.196734
			-0.645225  0.763679 -0.021885
			-0.851812  0.519180 -0.069768
			-0.933354  0.213192 -0.288791
			-0.910448 -0.026714 -0.412760
			-0.967617  0.054593 -0.246448
			-0.950485  0.043934 -0.307650
			-0.884291  0.136838 -0.446436
			-0.845163 -0.087561 -0.527288
			-0.701271 -0.106812 -0.704847
			-0.662816 -0.147509 -0.734109
			-0.469714 -0.204415 -0.858827
			-0.287720 -0.303986 -0.908191
			-0.136201 -0.414436 -0.899829
			-0.097250 -0.241650 -0.965478
			 0.071906 -0.313805 -0.946761
			-0.988281 -0.050284 -0.144123
			-0.966420 -0.096962 -0.237974
			-0.223412  0.026035  0.974376
			-0.616979  0.096798  0.781004
			-0.775934  0.123344  0.618638
			-0.917691  0.136548  0.373093
			-0.373652  0.053144  0.926045
			-0.949362  0.123701  0.288807
			-0.966421  0.100668  0.236424
			-0.952553  0.072981  0.295494
			-0.972580  0.025887  0.231124
			-0.052195  0.008429  0.998601
			-0.999956  0.009280  0.001705
			-0.991329 -0.031400 -0.127595
			 0.097335  0.003858  0.995244
			 0.206069  0.009848  0.978488
			 0.060270  0.003500  0.998176
			 0.658326 -0.030814  0.752102
			 0.455138 -0.002353  0.890418
			 0.325968  0.011345  0.945313
			 0.751917 -0.039868  0.658052
			 0.883352 -0.065962  0.464045
			 0.989044 -0.087049  0.119225
			 0.991466 -0.075102  0.106555
			 0.997028 -0.044287 -0.063045
			 0.981389 -0.147219 -0.123294
			 0.813988 -0.454275 -0.362019
			 0.902156 -0.386471 -0.191715
			 0.948558 -0.029606 -0.315215
			 0.667387 -0.605877 -0.433022
			 0.517649 -0.697856 -0.495012
			 0.426959 -0.682719 -0.592960
			 0.746481 -0.209230 -0.631656
			 0.683934 -0.345322 -0.642640
			 0.553223 -0.503775 -0.663442
			 0.866359 -0.106004 -0.488043
			 0.868341 -0.095521 -0.486683
			 0.904399 -0.101886 -0.414346
			 0.935390 -0.025105 -0.352725
			-0.998491 -0.022624  0.050038
			-0.979991 -0.197976  0.020549
			-0.892318 -0.110646 -0.437637
			-0.753075 -0.227533 -0.617338
			-0.793447 -0.131269 -0.594315
			-0.957286  0.182390  0.224362
			-0.811402  0.055559 -0.581842
			 0.102946 -0.143814 -0.984236
			-0.659214 -0.140274  0.738756
			-0.822153 -0.024347  0.568745
			-0.801462  0.005437  0.598021
			-0.992348 -0.123037 -0.010373
			-0.920581 -0.027635 -0.389574
			-0.948538  0.034848  0.314742
			-0.934595  0.055820 -0.351307
			-0.389682 -0.463137  0.796023
			-0.000753 -0.871316  0.490722
			 0.043486 -0.913963  0.403462
			 0.246579 -0.242236 -0.938361
			 0.216301 -0.694943 -0.685761
			 0.362570 -0.748512 -0.555223
			 0.410179 -0.883267 -0.227139
			 0.021341 -0.251854 -0.967530
			-0.158625 -0.452009 -0.877796
			-0.042064 -0.349424 -0.936020
			-0.254455 -0.667848 -0.699451
			-0.077497 -0.491847 -0.867226
			 0.259551 -0.267846 -0.927842
			-0.493292 -0.802403 -0.335875
			-0.595159 -0.746278 -0.298086
			-0.496560 -0.770753 -0.399208
			-0.393863 -0.718196 -0.573643
			-0.499490 -0.734577 -0.459245
			-0.702880 -0.612200 -0.362175
			-0.732430 -0.376535 -0.567245
			 0.965687 -0.243920  0.089172
			 0.918790 -0.353156  0.176365
			 0.890385 -0.444364  0.098775
			 0.929753 -0.336663  0.149053
			 0.989348 -0.134447  0.055801
			 0.994807  0.085359  0.055440
			 0.937294  0.348540  0.000766
			 0.828862  0.558766 -0.027725
			 0.591287  0.694760 -0.409498
			 0.442651  0.683147 -0.580836
			 0.490420  0.557518 -0.669823
			 0.463591  0.636595 -0.616304
			 0.362601  0.749569 -0.553775
			 0.195211  0.939036 -0.283028
			 0.117211  0.970743 -0.209571
			 0.162693  0.968728 -0.187342
			 0.286110  0.935087 -0.209174
			 0.422560  0.877584 -0.226470
			 0.487106  0.847947 -0.209079